TITLE     = "Grid for periodic hill geometry"
VARIABLES = "x corner"
"y corner"
ZONE T="Wall-function_grid_[Mellen,Fr—hlich,Rodi, 2000]"
 I=177, J=65, K=1,F=POINT
DT=(SINGLE SINGLE )
 -2.328310045E-10 2.800000086E-02
 1.079999958E-03 2.800000086E-02
 2.159999916E-03 2.800000086E-02
 3.239999991E-03 2.799890004E-02
 4.319999833E-03 2.795520052E-02
 5.400000140E-03 2.786299959E-02
 6.479999982E-03 2.770639956E-02
 7.559999824E-03 2.746929973E-02
 8.639999665E-03 2.713550068E-02
 9.720000438E-03 2.669060044E-02
 1.080000028E-02 2.613740042E-02
 1.188000012E-02 2.549000084E-02
 1.295999996E-02 2.476260066E-02
 1.403999981E-02 2.396959998E-02
 1.512879971E-02 2.311789989E-02
 1.622650027E-02 2.221909910E-02
 1.733309962E-02 2.128520049E-02
 1.844869927E-02 2.032900043E-02
 1.957339980E-02 1.936360076E-02
 2.070729993E-02 1.840250008E-02
 2.185039967E-02 1.745060086E-02
 2.300279960E-02 1.650639996E-02
 2.416460030E-02 1.556850038E-02
 2.533590049E-02 1.463519968E-02
 2.651670016E-02 1.370450016E-02
 2.770720050E-02 1.277470030E-02
 2.890730090E-02 1.184379961E-02
 3.011720069E-02 1.090960018E-02
 3.133700043E-02 9.972100146E-03
 3.256670013E-02 9.037029929E-03
 3.380639851E-02 8.111690171E-03
 3.505630046E-02 7.203700021E-03
 3.631630167E-02 6.321060006E-03
 3.758659959E-02 5.472150166E-03
 3.886720166E-02 4.665710032E-03
 4.015820101E-02 3.910900094E-03
 4.145979881E-02 3.215450095E-03
 4.277199879E-02 2.582170069E-03
 4.409480095E-02 2.013029996E-03
 4.542849958E-02 1.510070055E-03
 4.677300155E-02 1.075370004E-03
 4.812840000E-02 7.110669976E-04
 4.949489981E-02 4.193430068E-04
 5.087260157E-02 2.024449932E-04
 5.226140097E-02 6.266870332E-05
 5.366159976E-02 2.369290087E-06
 5.507320166E-02 0.000000000E+00
 5.649629980E-02 0.000000000E+00
 5.793090165E-02 0.000000000E+00
 5.937730148E-02 0.000000000E+00
 6.083539873E-02 0.000000000E+00
 6.230539829E-02 0.000000000E+00
 6.378740072E-02 0.000000000E+00
 6.528150290E-02 0.000000000E+00
 6.678769737E-02 0.000000000E+00
 6.830620021E-02 0.000000000E+00
 6.983710080E-02 0.000000000E+00
 7.138050348E-02 0.000000000E+00
 7.293640077E-02 0.000000000E+00
 7.450500131E-02 0.000000000E+00
 7.608640194E-02 0.000000000E+00
 7.768060267E-02 0.000000000E+00
 7.928790152E-02 0.000000000E+00
 8.090820163E-02 0.000000000E+00
 8.254180104E-02 0.000000000E+00
 8.418860286E-02 0.000000000E+00
 8.584889770E-02 0.000000000E+00
 8.752270043E-02 0.000000000E+00
 8.921010047E-02 0.000000000E+00
 9.091129899E-02 0.000000000E+00
 9.262630343E-02 0.000000000E+00
 9.435530007E-02 0.000000000E+00
 9.609840065E-02 0.000000000E+00
 9.785570204E-02 0.000000000E+00
 9.962730110E-02 0.000000000E+00
 1.014133021E-01 0.000000000E+00
 1.032138988E-01 0.000000000E+00
 1.050292030E-01 0.000000000E+00
 1.068591997E-01 0.000000000E+00
 1.087040976E-01 0.000000000E+00
 1.105640978E-01 0.000000000E+00
 1.124392971E-01 0.000000000E+00
 1.143297032E-01 0.000000000E+00
 1.162355021E-01 0.000000000E+00
 1.181567982E-01 0.000000000E+00
 1.200938001E-01 0.000000000E+00
 1.220465973E-01 0.000000000E+00
 1.240151972E-01 0.000000000E+00
 1.260000020E-01 0.000000000E+00
 1.279847026E-01 0.000000000E+00
 1.299533993E-01 0.000000000E+00
 1.319061071E-01 0.000000000E+00
 1.338430941E-01 0.000000000E+00
 1.357644051E-01 0.000000000E+00
 1.376702935E-01 0.000000000E+00
 1.395606995E-01 0.000000000E+00
 1.414358020E-01 0.000000000E+00
 1.432957947E-01 0.000000000E+00
 1.451406926E-01 0.000000000E+00
 1.469707936E-01 0.000000000E+00
 1.487859935E-01 0.000000000E+00
 1.505866051E-01 0.000000000E+00
 1.523727030E-01 0.000000000E+00
 1.541443020E-01 0.000000000E+00
 1.559015960E-01 0.000000000E+00
 1.576445997E-01 0.000000000E+00
 1.593735963E-01 0.000000000E+00
 1.610887051E-01 0.000000000E+00
 1.627898961E-01 0.000000000E+00
 1.644773036E-01 0.000000000E+00
 1.661511064E-01 0.000000000E+00
 1.678113043E-01 0.000000000E+00
 1.694581956E-01 0.000000000E+00
 1.710917056E-01 0.000000000E+00
 1.727121025E-01 0.000000000E+00
 1.743192971E-01 0.000000000E+00
 1.759136021E-01 0.000000000E+00
 1.774948984E-01 0.000000000E+00
 1.790634990E-01 0.000000000E+00
 1.806194931E-01 0.000000000E+00
 1.821628064E-01 0.000000000E+00
 1.836937070E-01 0.000000000E+00
 1.852121949E-01 0.000000000E+00
 1.867184043E-01 0.000000000E+00
 1.882124990E-01 0.000000000E+00
 1.896944940E-01 0.000000000E+00
 1.911644936E-01 0.000000000E+00
 1.926226020E-01 0.000000000E+00
 1.940689981E-01 0.000000000E+00
 1.955036968E-01 0.000000000E+00
 1.969266981E-01 0.000000000E+00
 1.983383000E-01 2.371150003E-06
 1.997385025E-01 6.266310083E-05
 2.011273950E-01 2.024379937E-04
 2.025050074E-01 4.193260102E-04
 2.038715035E-01 7.110459846E-04
 2.052268982E-01 1.075339969E-03
 2.065714002E-01 1.510040020E-03
 2.079050988E-01 2.012999961E-03
 2.092279047E-01 2.582130022E-03
 2.105401009E-01 3.215410048E-03
 2.118417025E-01 3.910849802E-03
 2.131326944E-01 4.665649962E-03
 2.144134045E-01 5.472090095E-03
 2.156835943E-01 6.321010180E-03
 2.169436961E-01 7.203639951E-03
 2.181935012E-01 8.111620322E-03
 2.194332033E-01 9.036960080E-03
 2.206629068E-01 9.972030297E-03
 2.218827009E-01 1.090960018E-02
 2.230926007E-01 1.184369996E-02
 2.242926955E-01 1.277459972E-02
 2.254831940E-01 1.370439958E-02
 2.266640067E-01 1.463510003E-02
 2.278352976E-01 1.556850038E-02
 2.289970964E-01 1.650639996E-02
 2.301494926E-01 1.745050028E-02
 2.312926054E-01 1.840239950E-02
 2.324264944E-01 1.936360076E-02
 2.335512042E-01 2.032889985E-02
 2.346667945E-01 2.128509991E-02
 2.357733995E-01 2.221900038E-02
 2.368710935E-01 2.311779931E-02
 2.379599065E-01 2.396959998E-02
 2.390398979E-01 2.476250008E-02
 2.401199043E-01 2.548990026E-02
 2.411998957E-01 2.613729984E-02
 2.422799021E-01 2.669060044E-02
 2.433598936E-01 2.713550068E-02
 2.444398999E-01 2.746919915E-02
 2.455199957E-01 2.770639956E-02
 2.466000021E-01 2.786299959E-02
 2.476799935E-01 2.795520052E-02
 2.487599999E-01 2.799890004E-02
 2.498400062E-01 2.800000086E-02
 2.509199977E-01 2.800000086E-02
 2.520000041E-01 2.800000086E-02
 -2.328310045E-10 2.856159955E-02
 1.081550028E-03 2.856319956E-02
 2.164369915E-03 2.856370062E-02
 3.256489988E-03 2.856270038E-02
 4.359100014E-03 2.851819992E-02
 5.467609968E-03 2.842370048E-02
 6.582919974E-03 2.826209925E-02
 7.704029791E-03 2.801599912E-02
 8.828680031E-03 2.766850032E-02
 9.951739572E-03 2.720619924E-02
 1.106810011E-02 2.663470060E-02
 1.217669994E-02 2.597039938E-02
 1.327859983E-02 2.522859909E-02
 1.437509991E-02 2.442380041E-02
 1.547599956E-02 2.356299944E-02
 1.658220030E-02 2.265759930E-02
 1.769410074E-02 2.171959914E-02
 1.881200075E-02 2.076170035E-02
 1.993620023E-02 1.979709975E-02
 2.106750011E-02 1.883840002E-02
 2.220750041E-02 1.788930036E-02
 2.335689962E-02 1.694780029E-02
 2.451599948E-02 1.601229981E-02
 2.568490058E-02 1.508110017E-02
 2.686369978E-02 1.415219996E-02
 2.805249952E-02 1.322379988E-02
 2.925129980E-02 1.229409967E-02
 3.046010062E-02 1.136109978E-02
 3.167819977E-02 1.042519975E-02
 3.290469944E-02 9.492830373E-03
 3.413949907E-02 8.571470156E-03
 3.538259864E-02 7.668749895E-03
 3.663370013E-02 6.792699918E-03
 3.789259866E-02 5.951710045E-03
 3.915920109E-02 5.154469982E-03
 4.043319821E-02 4.409890156E-03
 4.171539843E-02 3.725050017E-03
 4.300649837E-02 3.102180082E-03
 4.430650175E-02 2.543010050E-03
 4.561579973E-02 2.049389994E-03
 4.693429917E-02 1.623179996E-03
 4.826220125E-02 1.266299980E-03
 4.959990084E-02 9.806939634E-04
 5.094769970E-02 7.683829754E-04
 5.230629817E-02 6.314240163E-04
 5.368049815E-02 5.718630273E-04
 5.507950112E-02 5.689840182E-04
 5.650040135E-02 5.686110235E-04
 5.793400109E-02 5.683390191E-04
 5.937990174E-02 5.681259790E-04
 6.083760038E-02 5.679529859E-04
 6.230729818E-02 5.678079906E-04
 6.378909945E-02 5.676859873E-04
 6.528290361E-02 5.675820285E-04
 6.678900123E-02 5.674909917E-04
 6.830739975E-02 5.674120039E-04
 6.983809918E-02 5.673430278E-04
 7.138139755E-02 5.672820262E-04
 7.293730229E-02 5.672289990E-04
 7.450579852E-02 5.671809777E-04
 7.608710229E-02 5.671380204E-04
 7.768130302E-02 5.671010003E-04
 7.928849757E-02 5.670670071E-04
 8.090870082E-02 5.670369719E-04
 8.254230022E-02 5.670100218E-04
 8.418899775E-02 5.669859820E-04
 8.584930003E-02 5.669639795E-04
 8.752310276E-02 5.669450038E-04
 8.921039850E-02 5.669270176E-04
 9.091159701E-02 5.669110105E-04
 9.262660146E-02 5.668969825E-04
 9.435559809E-02 5.668849917E-04
 9.609860182E-02 5.668739905E-04
 9.785590321E-02 5.668639787E-04
 9.962750226E-02 5.668550148E-04
 1.014135033E-01 5.668469821E-04
 1.032141000E-01 5.668390077E-04
 1.050292999E-01 5.668330123E-04
 1.068592966E-01 5.668280064E-04
 1.087042019E-01 5.668230006E-04
 1.105642021E-01 5.668179947E-04
 1.124394014E-01 5.668150261E-04
 1.143298000E-01 5.668110098E-04
 1.162355989E-01 5.668089725E-04
 1.181569025E-01 5.668069934E-04
 1.200938001E-01 5.668060039E-04
 1.220465973E-01 5.668040249E-04
 1.240151972E-01 5.668040249E-04
 1.260000020E-01 5.668040249E-04
 1.279847026E-01 5.668029771E-04
 1.299533993E-01 5.668040249E-04
 1.319061071E-01 5.668050144E-04
 1.338430047E-01 5.668069934E-04
 1.357644051E-01 5.668089725E-04
 1.376702040E-01 5.668119993E-04
 1.395605952E-01 5.668150261E-04
 1.414356977E-01 5.668179947E-04
 1.432957053E-01 5.668230006E-04
 1.451406032E-01 5.668280064E-04
 1.469707042E-01 5.668330123E-04
 1.487857997E-01 5.668390077E-04
 1.505865008E-01 5.668469821E-04
 1.523724943E-01 5.668550148E-04
 1.541440934E-01 5.668639787E-04
 1.559014022E-01 5.668739905E-04
 1.576443017E-01 5.668849917E-04
 1.593732983E-01 5.668979720E-04
 1.610884070E-01 5.669120001E-04
 1.627895981E-01 5.669270176E-04
 1.644769013E-01 5.669450038E-04
 1.661507040E-01 5.669639795E-04
 1.678109020E-01 5.669859820E-04
 1.694577038E-01 5.670100218E-04
 1.710911989E-01 5.670369719E-04
 1.727115065E-01 5.670670071E-04
 1.743187010E-01 5.671010003E-04
 1.759129018E-01 5.671390099E-04
 1.774940938E-01 5.671809777E-04
 1.790626049E-01 5.672280095E-04
 1.806185991E-01 5.672820262E-04
 1.821617931E-01 5.673430278E-04
 1.836925000E-01 5.674120039E-04
 1.852108985E-01 5.674909917E-04
 1.867170036E-01 5.675809807E-04
 1.882108003E-01 5.676859873E-04
 1.896926016E-01 5.678079906E-04
 1.911623031E-01 5.679519963E-04
 1.926199943E-01 5.681240000E-04
 1.940658987E-01 5.683379713E-04
 1.954997033E-01 5.686099757E-04
 1.969203949E-01 5.689830286E-04
 1.983194053E-01 5.718630273E-04
 1.996936947E-01 6.314169732E-04
 2.010522932E-01 7.683740114E-04
 2.024001032E-01 9.806749877E-04
 2.037377059E-01 1.266279956E-03
 2.050655931E-01 1.623149961E-03
 2.063840926E-01 2.049359959E-03
 2.076933980E-01 2.542980015E-03
 2.089934051E-01 3.102140035E-03
 2.102845013E-01 3.725009970E-03
 2.115667015E-01 4.409839865E-03
 2.128407061E-01 5.154420156E-03
 2.141073942E-01 5.951660220E-03
 2.153661996E-01 6.792650092E-03
 2.166174054E-01 7.668689825E-03
 2.178604007E-01 8.571390063E-03
 2.190952003E-01 9.492759593E-03
 2.203217000E-01 1.042510010E-02
 2.215397954E-01 1.136109978E-02
 2.227486074E-01 1.229400001E-02
 2.239474058E-01 1.322370023E-02
 2.251362950E-01 1.415199973E-02
 2.263150066E-01 1.508099958E-02
 2.274838984E-01 1.601229981E-02
 2.286430001E-01 1.694780029E-02
 2.297924012E-01 1.788919978E-02
 2.309322953E-01 1.883829944E-02
 2.320638001E-01 1.979709975E-02
 2.331878990E-01 2.076159976E-02
 2.343057990E-01 2.171950042E-02
 2.354176939E-01 2.265750058E-02
 2.365238965E-01 2.356290072E-02
 2.376247942E-01 2.442380041E-02
 2.387212962E-01 2.522850037E-02
 2.398232073E-01 2.597030066E-02
 2.409317940E-01 2.663449943E-02
 2.420480996E-01 2.720610052E-02
 2.431713045E-01 2.766860090E-02
 2.442958951E-01 2.801590040E-02
 2.454171032E-01 2.826209925E-02
 2.465323955E-01 2.842370048E-02
 2.476408929E-01 2.851819992E-02
 2.487435043E-01 2.856270038E-02
 2.498355955E-01 2.856370062E-02
 2.509183884E-01 2.856319956E-02
 2.520000041E-01 2.856159955E-02
 -2.328310045E-10 2.913049981E-02
 1.086069969E-03 2.913339995E-02
 2.175470116E-03 2.913489938E-02
 3.281109966E-03 2.913440019E-02
 4.405260086E-03 2.908959985E-02
 5.541259889E-03 2.899320051E-02
 6.689929869E-03 2.882719971E-02
 7.849260233E-03 2.857339941E-02
 9.014859796E-03 2.821380086E-02
 1.017769985E-02 2.773570083E-02
 1.132879965E-02 2.714709938E-02
 1.246580016E-02 2.646669932E-02
 1.359019987E-02 2.571059950E-02
 1.470389962E-02 2.489409968E-02
 1.581780054E-02 2.402409911E-02
 1.693350077E-02 2.311190031E-02
 1.805160008E-02 2.216959931E-02
 1.917270012E-02 2.120999992E-02
 2.029749937E-02 2.024569921E-02
 2.142759971E-02 1.928889938E-02
 2.256540023E-02 1.834229939E-02
 2.371250093E-02 1.740320027E-02
 2.486930043E-02 1.647019945E-02
 2.603619918E-02 1.554119959E-02
 2.721310034E-02 1.461429987E-02
 2.840030007E-02 1.368779968E-02
 2.959780023E-02 1.275980007E-02
 3.080530092E-02 1.182849985E-02
 3.202129900E-02 1.089499984E-02
 3.324459866E-02 9.966040030E-03
 3.447460011E-02 9.049289860E-03
 3.571100160E-02 8.152480237E-03
 3.695330024E-02 7.283660118E-03
 3.820100054E-02 6.451200228E-03
 3.945380077E-02 5.663670134E-03
 4.071129858E-02 4.929670133E-03
 4.197460040E-02 4.255710170E-03
 4.324489832E-02 3.643519944E-03
 4.452240095E-02 3.094560001E-03
 4.580749944E-02 2.610439900E-03
 4.710039869E-02 2.192769898E-03
 4.840129986E-02 1.843239996E-03
 4.971089959E-02 1.563529950E-03
 5.103019997E-02 1.355389948E-03
 5.236069858E-02 1.220569946E-03
 5.371150002E-02 1.160789980E-03
 5.509719998E-02 1.156289945E-03
 5.651279911E-02 1.154790050E-03
 5.794379860E-02 1.153680030E-03
 5.938789994E-02 1.152819954E-03
 6.084439903E-02 1.152110053E-03
 6.231319904E-02 1.151529956E-03
 6.379420310E-02 1.151029952E-03
 6.528750062E-02 1.150600030E-03
 6.679300219E-02 1.150239957E-03
 6.831099838E-02 1.149910036E-03
 6.984139979E-02 1.149630058E-03
 7.138430327E-02 1.149390009E-03
 7.293990254E-02 1.149169984E-03
 7.450810075E-02 1.148969983E-03
 7.608920336E-02 1.148800016E-03
 7.768320292E-02 1.148649957E-03
 7.929030061E-02 1.148510026E-03
 8.091030270E-02 1.148390002E-03
 8.254379779E-02 1.148279989E-03
 8.419039845E-02 1.148179988E-03
 8.585049957E-02 1.148089999E-03
 8.752419800E-02 1.148010022E-03
 8.921150118E-02 1.147940056E-03
 9.091260284E-02 1.147879986E-03
 9.262739867E-02 1.147820032E-03
 9.435640275E-02 1.147769974E-03
 9.609930217E-02 1.147720031E-03
 9.785649925E-02 1.147679985E-03
 9.962809831E-02 1.147649949E-03
 1.014140025E-01 1.147610019E-03
 1.032145023E-01 1.147579984E-03
 1.050297022E-01 1.147559960E-03
 1.068596989E-01 1.147540053E-03
 1.087044999E-01 1.147520030E-03
 1.105645001E-01 1.147500006E-03
 1.124396026E-01 1.147479983E-03
 1.143300012E-01 1.147469971E-03
 1.162358001E-01 1.147459960E-03
 1.181569993E-01 1.147449948E-03
 1.200938970E-01 1.147449948E-03
 1.220467016E-01 1.147440053E-03
 1.240153015E-01 1.147440053E-03
 1.260000020E-01 1.147440053E-03
 1.279845983E-01 1.147440053E-03
 1.299532950E-01 1.147440053E-03
 1.319058985E-01 1.147449948E-03
 1.338429004E-01 1.147449948E-03
 1.357641965E-01 1.147459960E-03
 1.376700997E-01 1.147469971E-03
 1.395604014E-01 1.147479983E-03
 1.414353997E-01 1.147500006E-03
 1.432953030E-01 1.147520030E-03
 1.451402009E-01 1.147540053E-03
 1.469703019E-01 1.147559960E-03
 1.487853974E-01 1.147579984E-03
 1.505859047E-01 1.147610019E-03
 1.523718983E-01 1.147649949E-03
 1.541434973E-01 1.147679985E-03
 1.559005976E-01 1.147720031E-03
 1.576436013E-01 1.147769974E-03
 1.593724936E-01 1.147820032E-03
 1.610874981E-01 1.147879986E-03
 1.627884954E-01 1.147940056E-03
 1.644757986E-01 1.148010022E-03
 1.661493927E-01 1.148089999E-03
 1.678095013E-01 1.148179988E-03
 1.694561988E-01 1.148279989E-03
 1.710895002E-01 1.148390002E-03
 1.727097034E-01 1.148510026E-03
 1.743167043E-01 1.148649957E-03
 1.759108007E-01 1.148800016E-03
 1.774917990E-01 1.148969983E-03
 1.790601015E-01 1.149169984E-03
 1.806156933E-01 1.149379998E-03
 1.821586043E-01 1.149630058E-03
 1.836889982E-01 1.149910036E-03
 1.852069050E-01 1.150229946E-03
 1.867125034E-01 1.150600030E-03
 1.882057935E-01 1.151029952E-03
 1.896868050E-01 1.151519944E-03
 1.911555976E-01 1.152110053E-03
 1.926120073E-01 1.152809942E-03
 1.940560937E-01 1.153680030E-03
 1.954873055E-01 1.154780039E-03
 1.969027966E-01 1.156280050E-03
 1.982883960E-01 1.160779968E-03
 1.996392012E-01 1.220560051E-03
 2.009699047E-01 1.355370041E-03
 2.022890002E-01 1.563510043E-03
 2.035986036E-01 1.843209960E-03
 2.048995048E-01 2.192730084E-03
 2.061924040E-01 2.610400086E-03
 2.074774951E-01 3.094519954E-03
 2.087551057E-01 3.643469885E-03
 2.100252956E-01 4.255659878E-03
 2.112887055E-01 4.929619841E-03
 2.125460953E-01 5.663610063E-03
 2.137989998E-01 6.451140158E-03
 2.150467038E-01 7.283609826E-03
 2.162891030E-01 8.152419701E-03
 2.175253034E-01 9.049209766E-03
 2.187553048E-01 9.965959936E-03
 2.199784964E-01 1.089490019E-02
 2.211946994E-01 1.182849985E-02
 2.224020958E-01 1.275970042E-02
 2.235995978E-01 1.368770003E-02
 2.247869074E-01 1.461420022E-02
 2.259638011E-01 1.554109994E-02
 2.271306068E-01 1.647010073E-02
 2.282872945E-01 1.740320027E-02
 2.294344008E-01 1.834220067E-02
 2.305722982E-01 1.928880066E-02
 2.317024022E-01 2.024569921E-02
 2.328272015E-01 2.120989934E-02
 2.339483052E-01 2.216959931E-02
 2.350665033E-01 2.311179973E-02
 2.361820936E-01 2.402400039E-02
 2.372960001E-01 2.489409968E-02
 2.384096980E-01 2.571050078E-02
 2.395340949E-01 2.646660060E-02
 2.406709939E-01 2.714700066E-02
 2.418220937E-01 2.773570083E-02
 2.429849952E-01 2.821380086E-02
 2.441506982E-01 2.857330069E-02
 2.453100979E-01 2.882719971E-02
 2.464586943E-01 2.899320051E-02
 2.475946993E-01 2.908959985E-02
 2.487189025E-01 2.913440019E-02
 2.498244941E-01 2.913489938E-02
 2.509138882E-01 2.913339995E-02
 2.520000041E-01 2.913049981E-02
 -2.328310045E-10 2.970720083E-02
 1.093139988E-03 2.971100062E-02
 2.191760112E-03 2.971380018E-02
 3.312049899E-03 2.971429937E-02
 4.457210191E-03 2.966940030E-02
 5.619700067E-03 2.957160026E-02
 6.799969822E-03 2.940200083E-02
 7.994979620E-03 2.914129943E-02
 9.198499843E-03 2.877110057E-02
 1.039849967E-02 2.827879973E-02
 1.158289984E-02 2.767430060E-02
 1.274789963E-02 2.697839960E-02
 1.389500033E-02 2.620849945E-02
 1.502660010E-02 2.538049966E-02
 1.615430042E-02 2.450120077E-02
 1.728029922E-02 2.358230017E-02
 1.840550080E-02 2.263559960E-02
 1.953089982E-02 2.167389914E-02
 2.065739967E-02 2.070970088E-02
 2.178720012E-02 1.975440048E-02
 2.292379923E-02 1.880989969E-02
 2.406919934E-02 1.787330024E-02
 2.522430010E-02 1.694270037E-02
 2.638939954E-02 1.601609960E-02
 2.756470069E-02 1.509150025E-02
 2.875049971E-02 1.416719984E-02
 2.994659916E-02 1.324140001E-02
 3.115249984E-02 1.231249981E-02
 3.236639872E-02 1.138199959E-02
 3.358640149E-02 1.045710035E-02
 3.481150046E-02 9.545650333E-03
 3.604130074E-02 8.655389771E-03
 3.727480024E-02 7.794419769E-03
 3.851160035E-02 6.971039809E-03
 3.975079954E-02 6.193690002E-03
 4.099220037E-02 5.470620003E-03
 4.223709926E-02 4.807769787E-03
 4.348700121E-02 4.206479993E-03
 4.474230111E-02 3.667900106E-03
 4.600369930E-02 3.193360055E-03
 4.727140069E-02 2.784240060E-03
 4.854590073E-02 2.441929886E-03
 4.982839897E-02 2.167850034E-03
 5.112029985E-02 1.963430084E-03
 5.242490023E-02 1.830140012E-03
 5.375390127E-02 1.769340015E-03
 5.512560159E-02 1.762329950E-03
 5.653379858E-02 1.758989994E-03
 5.796049908E-02 1.756489975E-03
 5.940169841E-02 1.754519995E-03
 6.085610017E-02 1.752919983E-03
 6.232329831E-02 1.751580043E-03
 6.380300224E-02 1.750449999E-03
 6.529530138E-02 1.749470015E-03
 6.679999828E-02 1.748629962E-03
 6.831719726E-02 1.747900038E-03
 6.984689832E-02 1.747259987E-03
 7.138930261E-02 1.746690017E-03
 7.294440269E-02 1.746190013E-03
 7.451219857E-02 1.745749963E-03
 7.609289885E-02 1.745349960E-03
 7.768660039E-02 1.745000016E-03
 7.929330319E-02 1.744690002E-03
 8.091320097E-02 1.744410023E-03
 8.254630119E-02 1.744159963E-03
 8.419270068E-02 1.743930043E-03
 8.585269749E-02 1.743730041E-03
 8.752620220E-02 1.743549947E-03
 8.921319991E-02 1.743389992E-03
 9.091419727E-02 1.743240049E-03
 9.262890369E-02 1.743110013E-03
 9.435769916E-02 1.743000001E-03
 9.610059857E-02 1.742889988E-03
 9.785769880E-02 1.742799999E-03
 9.962909669E-02 1.742710010E-03
 1.014148965E-01 1.742640045E-03
 1.032152995E-01 1.742569963E-03
 1.050304994E-01 1.742510009E-03
 1.068603024E-01 1.742459950E-03
 1.087051034E-01 1.742420020E-03
 1.105649993E-01 1.742379973E-03
 1.124401018E-01 1.742340042E-03
 1.143304035E-01 1.742310007E-03
 1.162360013E-01 1.742289984E-03
 1.181572005E-01 1.742269960E-03
 1.200940982E-01 1.742259949E-03
 1.220467985E-01 1.742250053E-03
 1.240153015E-01 1.742240041E-03
 1.260000020E-01 1.742240041E-03
 1.279845983E-01 1.742240041E-03
 1.299532056E-01 1.742250053E-03
 1.319057941E-01 1.742259949E-03
 1.338427067E-01 1.742269960E-03
 1.357638985E-01 1.742289984E-03
 1.376696974E-01 1.742320019E-03
 1.395598948E-01 1.742340042E-03
 1.414348930E-01 1.742379973E-03
 1.432947963E-01 1.742420020E-03
 1.451396048E-01 1.742459950E-03
 1.469696015E-01 1.742520020E-03
 1.487845927E-01 1.742579974E-03
 1.505849957E-01 1.742640045E-03
 1.523708999E-01 1.742720022E-03
 1.541423947E-01 1.742799999E-03
 1.558994055E-01 1.742889988E-03
 1.576422006E-01 1.743000001E-03
 1.593710035E-01 1.743120025E-03
 1.610857993E-01 1.743249944E-03
 1.627867073E-01 1.743389992E-03
 1.644739062E-01 1.743549947E-03
 1.661473066E-01 1.743730041E-03
 1.678072065E-01 1.743930043E-03
 1.694536954E-01 1.744159963E-03
 1.710866988E-01 1.744410023E-03
 1.727066040E-01 1.744690002E-03
 1.743133068E-01 1.745000016E-03
 1.759071052E-01 1.745349960E-03
 1.774877012E-01 1.745749963E-03
 1.790556014E-01 1.746190013E-03
 1.806107014E-01 1.746690017E-03
 1.821530014E-01 1.747249975E-03
 1.836827993E-01 1.747890026E-03
 1.851999015E-01 1.748629962E-03
 1.867046058E-01 1.749470015E-03
 1.881968975E-01 1.750439988E-03
 1.896765977E-01 1.751570031E-03
 1.911439002E-01 1.752899960E-03
 1.925981939E-01 1.754509984E-03
 1.940394044E-01 1.756469952E-03
 1.954662949E-01 1.758969971E-03
 1.968743056E-01 1.762310043E-03
 1.982461065E-01 1.769319992E-03
 1.995750964E-01 1.830109977E-03
 2.008796930E-01 1.963410061E-03
 2.021715045E-01 2.167809987E-03
 2.034540027E-01 2.441890072E-03
 2.047284991E-01 2.784190001E-03
 2.059962004E-01 3.193309996E-03
 2.072575986E-01 3.667850047E-03
 2.085130066E-01 4.206419922E-03
 2.097627968E-01 4.807710182E-03
 2.110076994E-01 5.470550153E-03
 2.122491002E-01 6.193620153E-03
 2.134884000E-01 6.970960181E-03
 2.147251070E-01 7.794349920E-03
 2.159586996E-01 8.655319922E-03
 2.171884030E-01 9.545559995E-03
 2.184136063E-01 1.045699976E-02
 2.196335047E-01 1.138189994E-02
 2.208475024E-01 1.231240015E-02
 2.220533937E-01 1.324119978E-02
 2.232494950E-01 1.416710019E-02
 2.244352996E-01 1.509130001E-02
 2.256105989E-01 1.601590030E-02
 2.267757058E-01 1.694270037E-02
 2.279306054E-01 1.787330024E-02
 2.290759981E-01 1.880989969E-02
 2.302125990E-01 1.975419931E-02
 2.313424945E-01 2.070970088E-02
 2.324690074E-01 2.167380042E-02
 2.335944027E-01 2.263550088E-02
 2.347196937E-01 2.358219959E-02
 2.358455956E-01 2.450110018E-02
 2.369733006E-01 2.538049966E-02
 2.381049991E-01 2.620849945E-02
 2.392520010E-01 2.697830088E-02
 2.404168993E-01 2.767420001E-02
 2.416013032E-01 2.827869914E-02
 2.428013980E-01 2.877110057E-02
 2.440049946E-01 2.914120071E-02
 2.451999933E-01 2.940200083E-02
 2.463802993E-01 2.957160026E-02
 2.475426942E-01 2.966940030E-02
 2.486878932E-01 2.971420065E-02
 2.498082072E-01 2.971380018E-02
 2.509067953E-01 2.971100062E-02
 2.520000041E-01 2.970720083E-02
 -2.328310045E-10 3.029160015E-02
 1.102320035E-03 3.029650077E-02
 2.212109976E-03 3.030069917E-02
 3.347920021E-03 3.030239977E-02
 4.513809923E-03 3.025780059E-02
 5.701870192E-03 3.015910089E-02
 6.912120152E-03 2.998650074E-02
 8.140649647E-03 2.971979976E-02
 9.379570372E-03 2.934020013E-02
 1.061450038E-02 2.883509919E-02
 1.183089986E-02 2.821590006E-02
 1.302350033E-02 2.750539966E-02
 1.419339981E-02 2.672220021E-02
 1.534339972E-02 2.588279918E-02
 1.648570038E-02 2.499449998E-02
 1.762269996E-02 2.406880073E-02
 1.875589974E-02 2.311770059E-02
 1.988649927E-02 2.215380035E-02
 2.101559937E-02 2.118930034E-02
 2.214629948E-02 2.023519948E-02
 2.328239940E-02 1.929279976E-02
 2.442679927E-02 1.835850067E-02
 2.558049932E-02 1.743040048E-02
 2.674419992E-02 1.650629938E-02
 2.791819908E-02 1.558419969E-02
 2.910259925E-02 1.466239989E-02
 3.029729985E-02 1.373929996E-02
 3.150159866E-02 1.281339955E-02
 3.271320090E-02 1.188670006E-02
 3.392989933E-02 1.096659992E-02
 3.515009955E-02 1.006099954E-02
 3.637329862E-02 9.177929722E-03
 3.759820014E-02 8.325380273E-03
 3.882420063E-02 7.511619944E-03
 4.005010054E-02 6.744880229E-03
 4.127579927E-02 6.033040117E-03
 4.250270128E-02 5.381530151E-03
 4.373259842E-02 4.791299812E-03
 4.496619850E-02 4.263210110E-03
 4.620429873E-02 3.798289923E-03
 4.744739830E-02 3.397640074E-03
 4.869620129E-02 3.062380012E-03
 4.995249957E-02 2.793610096E-03
 5.121840164E-02 2.592480043E-03
 5.249860138E-02 2.460140036E-03
 5.380700156E-02 2.397699980E-03
 5.516440049E-02 2.387460088E-03
 5.656360090E-02 2.381619997E-03
 5.798450112E-02 2.377189929E-03
 5.942169949E-02 2.373680007E-03
 6.087309867E-02 2.370799892E-03
 6.233799830E-02 2.368400106E-03
 6.381589919E-02 2.366360044E-03
 6.530659646E-02 2.364600077E-03
 6.680999696E-02 2.363089938E-03
 6.832619756E-02 2.361770021E-03
 6.985499710E-02 2.360610059E-03
 7.139659673E-02 2.359590027E-03
 7.295089960E-02 2.358689904E-03
 7.451819628E-02 2.357889898E-03
 7.609830052E-02 2.357179997E-03
 7.769150287E-02 2.356539946E-03
 7.929780334E-02 2.355979988E-03
 8.091720194E-02 2.355470089E-03
 8.254999667E-02 2.355020028E-03
 8.419609815E-02 2.354610013E-03
 8.585570008E-02 2.354250057E-03
 8.752900362E-02 2.353919903E-03
 8.921580017E-02 2.353630029E-03
 9.091649950E-02 2.353369957E-03
 9.263110161E-02 2.353129908E-03
 9.435959905E-02 2.352919895E-03
 9.610229731E-02 2.352729905E-03
 9.785930067E-02 2.352559939E-03
 9.963049740E-02 2.352409996E-03
 1.014162004E-01 2.352280077E-03
 1.032164991E-01 2.352159936E-03
 1.050314978E-01 2.352050040E-03
 1.068611965E-01 2.351959934E-03
 1.087059006E-01 2.351870062E-03
 1.105656996E-01 2.351799980E-03
 1.124406978E-01 2.351739909E-03
 1.143307984E-01 2.351690084E-03
 1.162365004E-01 2.351650037E-03
 1.181576028E-01 2.351609990E-03
 1.200944036E-01 2.351579955E-03
 1.220469996E-01 2.351569943E-03
 1.240153983E-01 2.351549920E-03
 1.260000020E-01 2.351549920E-03
 1.279844940E-01 2.351549920E-03
 1.299529970E-01 2.351569943E-03
 1.319054961E-01 2.351579955E-03
 1.338423938E-01 2.351609990E-03
 1.357634962E-01 2.351650037E-03
 1.376692057E-01 2.351690084E-03
 1.395594031E-01 2.351739909E-03
 1.414341927E-01 2.351809992E-03
 1.432940066E-01 2.351880074E-03
 1.451386958E-01 2.351959934E-03
 1.469684988E-01 2.352050040E-03
 1.487834007E-01 2.352159936E-03
 1.505836993E-01 2.352280077E-03
 1.523694992E-01 2.352409996E-03
 1.541408002E-01 2.352569951E-03
 1.558977067E-01 2.352729905E-03
 1.576402932E-01 2.352919895E-03
 1.593687981E-01 2.353139920E-03
 1.610835046E-01 2.353369957E-03
 1.627842039E-01 2.353630029E-03
 1.644710004E-01 2.353919903E-03
 1.661442071E-01 2.354250057E-03
 1.678037941E-01 2.354610013E-03
 1.694499999E-01 2.355020028E-03
 1.710826010E-01 2.355470089E-03
 1.727021039E-01 2.355979988E-03
 1.743084043E-01 2.356539946E-03
 1.759016961E-01 2.357169986E-03
 1.774816960E-01 2.357879886E-03
 1.790490001E-01 2.358679892E-03
 1.806033999E-01 2.359580016E-03
 1.821449995E-01 2.360600047E-03
 1.836737990E-01 2.361760009E-03
 1.851899028E-01 2.363079926E-03
 1.866932958E-01 2.364590066E-03
 1.881839931E-01 2.366340021E-03
 1.896619946E-01 2.368380083E-03
 1.911268979E-01 2.370780101E-03
 1.925781965E-01 2.373649972E-03
 1.940153986E-01 2.377169905E-03
 1.954364926E-01 2.381589962E-03
 1.968355030E-01 2.387430053E-03
 1.981928945E-01 2.397659933E-03
 1.995013952E-01 2.460099990E-03
 2.007815987E-01 2.592439996E-03
 2.020473927E-01 2.793560037E-03
 2.033036053E-01 3.062319942E-03
 2.045525014E-01 3.397569992E-03
 2.057956010E-01 3.798220074E-03
 2.070337981E-01 4.263139796E-03
 2.082674056E-01 4.791220184E-03
 2.094971985E-01 5.381450057E-03
 2.107242048E-01 6.032960024E-03
 2.119498998E-01 6.744800135E-03
 2.131758928E-01 7.511530071E-03
 2.144017071E-01 8.325300179E-03
 2.156268060E-01 9.177840315E-03
 2.168498039E-01 1.006089989E-02
 2.180701047E-01 1.096650027E-02
 2.192866951E-01 1.188660040E-02
 2.204983979E-01 1.281339955E-02
 2.217026949E-01 1.373920031E-02
 2.228973955E-01 1.466230024E-02
 2.240816951E-01 1.558400039E-02
 2.252556980E-01 1.650610007E-02
 2.264192998E-01 1.743029989E-02
 2.275730073E-01 1.835850067E-02
 2.287174016E-01 1.929269917E-02
 2.298534960E-01 2.023510076E-02
 2.309843004E-01 2.118930034E-02
 2.321134955E-01 2.215369977E-02
 2.332441062E-01 2.311760001E-02
 2.343772948E-01 2.406870015E-02
 2.355141938E-01 2.499439940E-02
 2.366565019E-01 2.588279918E-02
 2.378066033E-01 2.672209963E-02
 2.389764041E-01 2.750529908E-02
 2.401688993E-01 2.821579948E-02
 2.413854003E-01 2.883500047E-02