TITLE     = "Periodic hill 257x129"
VARIABLES = "x corner"
"y corner"
ZONE T="I257_J129_g2.00_a0.5"
 I=257, J=129, K=1,F=POINT
DT=(SINGLE SINGLE )
 -1.164150026E-10  2.800000086E-02
  6.890608665E-04  2.800006690E-02
  1.378127721E-03  2.799988716E-02
  2.067182264E-03  2.800021773E-02
  2.756257932E-03  2.799985505E-02
  3.445354214E-03  2.799261803E-02
  4.134577991E-03  2.796625525E-02
  4.823829301E-03  2.791896704E-02
  5.512844455E-03  2.784996506E-02
  6.201916404E-03  2.775383044E-02
  6.891920540E-03  2.762628746E-02
  7.581750038E-03  2.746352245E-02
  8.270541207E-03  2.726158259E-02
  8.958373407E-03  2.701632717E-02
  9.649749933E-03  2.672293965E-02
  1.033949938E-02  2.638561159E-02
  1.102755271E-02  2.600834908E-02
  1.171425452E-02  2.559486648E-02
  1.240517434E-02  2.514541149E-02
  1.309479747E-02  2.466693303E-02
  1.378316558E-02  2.416337895E-02
  1.447152093E-02  2.363764118E-02
  1.516748195E-02  2.308687420E-02
  1.586861092E-02  2.251569465E-02
  1.657355398E-02  2.192850097E-02
  1.728287244E-02  2.132804590E-02
  1.799814533E-02  2.071608376E-02
  1.871929002E-02  2.009635203E-02
  1.944479935E-02  1.947364550E-02
  2.017552048E-02  1.885107219E-02
  2.091177450E-02  1.823101895E-02
  2.165376370E-02  1.761315397E-02
  2.240094494E-02  1.699770230E-02
  2.315331005E-02  1.638425992E-02
  2.391081267E-02  1.577237613E-02
  2.467440674E-02  1.516091549E-02
  2.544349941E-02  1.454992497E-02
  2.621785875E-02  1.393915063E-02
  2.699739671E-02  1.332817026E-02
  2.778304519E-02  1.271570045E-02
  2.857472819E-02  1.210125533E-02
  2.937168878E-02  1.148481703E-02
  3.017380341E-02  1.086595611E-02
  3.098195514E-02  1.024423710E-02
  3.179656565E-02  9.621098976E-03
  3.261653685E-02  8.999492006E-03
  3.344223715E-02  8.381344819E-03
  3.427406601E-02  7.768674959E-03
  3.511187224E-02  7.164023006E-03
  3.595550922E-02  6.569972294E-03
  3.680541982E-02  5.988863644E-03
  3.766202597E-02  5.423166314E-03
  3.852393270E-02  4.876544355E-03
  3.939188053E-02  4.351422172E-03
  4.026669839E-02  3.850405516E-03
  4.114855514E-02  3.375659354E-03
  4.203602159E-02  2.928968267E-03
  4.292933220E-02  2.510821706E-03
  4.382970006E-02  2.121495399E-03
  4.473701803E-02  1.761936228E-03
  4.565065053E-02  1.433211429E-03
  4.657024899E-02  1.136257070E-03
  4.749688934E-02  8.715461536E-04
  4.843036153E-02  6.400644552E-04
  4.937040061E-02  4.427660024E-04
  5.031728375E-02  2.804773392E-04
  5.127119491E-02  1.543427204E-04
  5.223180312E-02  6.448060184E-05
  5.319863796E-02  1.355650831E-05
  5.417342610E-02  3.715585596E-07
  5.515540482E-02 -1.913368042E-07
  5.614371053E-02  6.464010156E-08
  5.713847466E-02 -1.028210947E-08
  5.814098517E-02 -3.518758033E-09
  5.915169772E-02  3.301058382E-09
  6.016896618E-02 -1.288856183E-09
  6.119284310E-02  2.729736732E-10
  6.222406425E-02  2.815019051E-11
  6.326433819E-02 -5.414312922E-11
  6.431145488E-02  2.473829475E-11
  6.536540016E-02 -6.383938517E-12
  6.642614643E-02  1.721418147E-13
  6.749672186E-02  8.301380416E-13
  6.857451331E-02 -4.576772988E-13
  6.965934951E-02  1.385939974E-13
  7.075126190E-02 -1.542863060E-14
  7.185238414E-02 -1.148213469E-14
  7.296172867E-02  8.149730890E-15
  7.407832239E-02 -2.853620118E-15
  7.520222524E-02  4.926614672E-16
  7.633481267E-02  1.318389842E-16
  7.747667597E-02 -1.370431546E-16
  7.862600079E-02  5.551115123E-17
  7.978285523E-02 -1.561251128E-17
  8.094775211E-02  1.734723476E-18
  8.212307770E-02  3.469446952E-18
  8.330610022E-02  1.734723476E-18
  8.449685294E-02  0.000000000E+00
  8.569536591E-02 -1.734723476E-18
  8.690474532E-02  1.734723476E-18
  8.812245214E-02  0.000000000E+00
  8.934808732E-02 -1.734723476E-18
  9.058170906E-02  0.000000000E+00
  9.182554274E-02  0.000000000E+00
  9.307893645E-02  1.734723476E-18
  9.434053768E-02  0.000000000E+00
  9.561037575E-02 -1.734723476E-18
  9.688966198E-02  0.000000000E+00
  9.817980742E-02  0.000000000E+00
  9.947839135E-02  1.734723476E-18
  1.007854447E-01  0.000000000E+00
  1.021012502E-01 -1.734723476E-18
  1.034291983E-01  0.000000000E+00
  1.047658088E-01  0.000000000E+00
  1.061111654E-01  0.000000000E+00
  1.074653358E-01  0.000000000E+00
  1.088313624E-01  0.000000000E+00
  1.102071623E-01  0.000000000E+00
  1.115919740E-01  0.000000000E+00
  1.129858256E-01  0.000000000E+00
  1.143908985E-01  0.000000000E+00
  1.158069922E-01  0.000000000E+00
  1.172323464E-01  0.000000000E+00
  1.186670149E-01  0.000000000E+00
  1.201121322E-01  0.000000000E+00
  1.215697649E-01  0.000000000E+00
  1.230369478E-01  0.000000000E+00
  1.245137179E-01  0.000000000E+00
  1.260001063E-01  0.000000000E+00
  1.274864091E-01  0.000000000E+00
  1.289631492E-01  0.000000000E+00
  1.304303308E-01  0.000000000E+00
  1.318879687E-01  0.000000000E+00
  1.333330860E-01  0.000000000E+00
  1.347677545E-01  0.000000000E+00
  1.361931435E-01  0.000000000E+00
  1.376092881E-01  0.000000000E+00
  1.390142925E-01  0.000000000E+00
  1.404081294E-01  0.000000000E+00
  1.417929386E-01  0.000000000E+00
  1.431687400E-01  0.000000000E+00
  1.445347723E-01  0.000000000E+00
  1.458889376E-01  0.000000000E+00
  1.472342885E-01  0.000000000E+00
  1.485708989E-01  0.000000000E+00
  1.498988581E-01  0.000000000E+00
  1.512146578E-01  0.000000000E+00
  1.525217136E-01  0.000000000E+00
  1.538202986E-01  0.000000000E+00
  1.551104383E-01  0.000000000E+00
  1.563897188E-01 -3.469446952E-18
  1.576595558E-01  0.000000000E+00
  1.589211598E-01  3.469446952E-18
  1.601745581E-01  0.000000000E+00
  1.614183918E-01  0.000000000E+00
  1.626520136E-01  0.000000000E+00
  1.638776520E-01  0.000000000E+00
  1.650953631E-01  0.000000000E+00
  1.663047425E-01  0.000000000E+00
  1.675032554E-01  0.000000000E+00
  1.686940044E-01  0.000000000E+00
  1.698770509E-01  0.000000000E+00
  1.710524499E-01  3.469446952E-18
  1.722172669E-01 -1.040834086E-17
  1.733740960E-01  5.551115123E-17
  1.745234199E-01 -1.353084311E-16
  1.756652883E-01  1.318389842E-16
  1.767978756E-01  4.926614672E-16
  1.779217738E-01 -2.844946501E-15
  1.790383677E-01  8.132383655E-15
  1.801477168E-01 -1.145611384E-14
  1.812488390E-01 -1.539046668E-14
  1.823407514E-01  1.382574610E-13
  1.834255876E-01 -4.565757494E-13
  1.845033774E-01  8.281292319E-13
  1.855739471E-01  1.717202769E-13
  1.866347715E-01 -6.369231531E-12
  1.876886930E-01  2.467651083E-11
  1.887357617E-01 -5.401172565E-11
  1.897760329E-01  2.808226568E-11
  1.908072541E-01  2.723157186E-10
  1.918311353E-01 -1.285760054E-09
  1.928484057E-01  3.293094214E-09
  1.938591263E-01 -3.510572347E-09
  1.948617110E-01 -1.025842455E-08
  1.958564276E-01  6.447826344E-08
  1.968446983E-01 -1.908730142E-07
  1.978266749E-01  3.708498919E-07
  1.988014630E-01  1.355424699E-05
  1.997682926E-01  6.448777512E-05
  2.007289019E-01  1.543579547E-04
  2.016828172E-01  2.804945799E-04
  2.026297003E-01  4.427859967E-04
  2.035697417E-01  6.400910485E-04
  2.045032657E-01  8.715765544E-04
  2.054299215E-01  1.136295489E-03
  2.063494541E-01  1.433252825E-03
  2.072630897E-01  1.761984924E-03
  2.081704061E-01  2.121550038E-03
  2.090708083E-01  2.510869254E-03
  2.099641623E-01  2.929015317E-03
  2.108515557E-01  3.375709800E-03
  2.117334041E-01  3.850464178E-03
  2.126082259E-01  4.351490145E-03
  2.134761735E-01  4.876623939E-03
  2.143380753E-01  5.423237104E-03
  2.151946847E-01  5.988939696E-03
  2.160445925E-01  6.570056604E-03
  2.168882540E-01  7.164106639E-03
  2.177261284E-01  7.768764541E-03
  2.185579663E-01  8.381433352E-03
  2.193836664E-01  8.999576011E-03
  2.202035987E-01  9.621191087E-03
  2.210181409E-01  1.024434003E-02
  2.218263003E-01  1.086605771E-02
  2.226284202E-01  1.148491339E-02
  2.234253737E-01  1.210136000E-02
  2.242170718E-01  1.271580005E-02
  2.250027899E-01  1.332826646E-02
  2.257822698E-01  1.393924838E-02
  2.265565900E-01  1.455003157E-02
  2.273256891E-01  1.516101461E-02
  2.280892881E-01  1.577247476E-02
  2.288467895E-01  1.638435864E-02
  2.295991540E-01  1.699780105E-02
  2.303463348E-01  1.761325262E-02
  2.310883208E-01  1.823111989E-02
  2.318245789E-01  1.885117671E-02
  2.325553590E-01  1.947374571E-02
  2.332809152E-01  2.009644608E-02
  2.340020469E-01  2.071618206E-02
  2.347172459E-01  2.132814216E-02
  2.354265356E-01  2.192868234E-02
  2.361315291E-01  2.251585946E-02
  2.368327104E-01  2.308696403E-02
  2.375285907E-01  2.363773997E-02
  2.382169268E-01  2.416349480E-02
  2.389053139E-01  2.466697651E-02
  2.395949318E-01  2.514543071E-02
  2.402858484E-01  2.559496672E-02
  2.409725546E-01  2.600836829E-02
  2.416606114E-01  2.638565188E-02
  2.423503468E-01  2.672305752E-02
  2.430417315E-01  2.701642064E-02
  2.437295686E-01  2.726158615E-02
  2.444183552E-01  2.746358617E-02
  2.451081814E-01  2.762636753E-02
  2.457981912E-01  2.775382339E-02
  2.464872627E-01  2.784996197E-02
  2.471762767E-01  2.791896959E-02
  2.478655289E-01  2.796625431E-02
  2.485547528E-01  2.799261822E-02
  2.492438495E-01  2.799985507E-02
  2.499329149E-01  2.800021768E-02
  2.506219652E-01  2.799988718E-02
  2.513110323E-01  2.800006689E-02
  2.520000935E-01  2.800000086E-02
 -1.047740006E-09  2.824850140E-02
  6.892153549E-04  2.824856716E-02
  1.378561522E-03  2.824838820E-02
  2.068442136E-03  2.824871732E-02
  2.759710220E-03  2.824835622E-02
  3.453173484E-03  2.824115076E-02
  4.148637922E-03  2.821490291E-02
  4.845471389E-03  2.816782086E-02
  5.543499193E-03  2.809911970E-02
  6.243143276E-03  2.800340419E-02
  6.944869075E-03  2.787641726E-02
  7.647988566E-03  2.771436185E-02
  8.351909338E-03  2.751330239E-02
  9.056611655E-03  2.726911619E-02
  9.763270468E-03  2.697700774E-02
  1.046866068E-02  2.664115032E-02
  1.117219782E-02  2.626553254E-02
  1.187434987E-02  2.585385259E-02
  1.257708998E-02  2.540635706E-02
  1.327833322E-02  2.492996461E-02
  1.397770184E-02  2.442860585E-02
  1.467731478E-02  2.390516012E-02
  1.538130961E-02  2.335679430E-02
  1.608935587E-02  2.278810489E-02
  1.680090732E-02  2.220347118E-02
  1.751617522E-02  2.160563389E-02
  1.823544373E-02  2.099633969E-02
  1.895890130E-02  2.037930978E-02
  1.968601007E-02  1.975931804E-02
  2.041723468E-02  1.913945894E-02
  2.115352580E-02  1.852210891E-02
  2.189508472E-02  1.790693761E-02
  2.264196151E-02  1.729416910E-02
  2.339420018E-02  1.668340113E-02
  2.415193639E-02  1.607418494E-02
  2.491545312E-02  1.546539006E-02
  2.568469904E-02  1.485706325E-02
  2.645951771E-02  1.424895167E-02
  2.723996805E-02  1.364063497E-02
  2.802642991E-02  1.303083532E-02
  2.881892011E-02  1.241906897E-02
  2.961706628E-02  1.180531814E-02
  3.042061335E-02  1.118915524E-02
  3.122960960E-02  1.057014671E-02
  3.204399628E-02  9.949725253E-03
  3.286336551E-02  9.330828277E-03
  3.368762468E-02  8.715376001E-03
  3.451685966E-02  8.105377172E-03
  3.535112803E-02  7.503361295E-03
  3.619025328E-02  6.911900441E-03
  3.703448059E-02  6.333325227E-03
  3.788394193E-02  5.770094144E-03
  3.873804185E-02  5.225855270E-03
  3.959706452E-02  4.703022440E-03
  4.046167046E-02  4.204190045E-03
  4.133225322E-02  3.731513615E-03
  4.220848137E-02  3.286769949E-03
  4.309043436E-02  2.870446364E-03
  4.397872253E-02  2.482817386E-03
  4.487345241E-02  2.124825771E-03
  4.577435141E-02  1.797534100E-03
  4.668118118E-02  1.501874360E-03
  4.759452093E-02  1.238317493E-03
  4.851440202E-02  1.007844976E-03
  4.944071299E-02  8.114066769E-04
  5.037364421E-02  6.498255369E-04
  5.131339881E-02  5.242408220E-04
  5.225990488E-02  4.347704716E-04
  5.321449538E-02  3.840683897E-04
  5.418047449E-02  3.709409218E-04
  5.515795538E-02  3.703804805E-04
  5.614492073E-02  3.706353414E-04
  5.713956334E-02  3.705607458E-04
  5.814197038E-02  3.705674797E-04
  5.915229401E-02  3.705742698E-04
  6.016945324E-02  3.705696999E-04
  6.119347737E-02  3.705712549E-04
  6.222499917E-02  3.705710112E-04
  6.326479443E-02  3.705709292E-04
  6.431179348E-02  3.705710078E-04
  6.536583620E-02  3.705709768E-04
  6.642697337E-02  3.705709833E-04
  6.749703863E-02  3.705709840E-04
  6.857468635E-02  3.705709827E-04
  6.965955736E-02  3.705709833E-04
  7.075177179E-02  3.705709831E-04
  7.185274116E-02  3.705709831E-04
  7.296178810E-02  3.705709831E-04
  7.407833446E-02  3.705709831E-04
  7.520253343E-02  3.705709831E-04
  7.633522343E-02  3.705709831E-04
  7.747667207E-02  3.705709831E-04
  7.862590349E-02  3.705709831E-04
  7.978294816E-02  3.705709831E-04
  8.094821559E-02  3.705709831E-04
  8.212311221E-02  3.705709831E-04
  8.330597383E-02  3.705709831E-04
  8.449676039E-02  3.705709831E-04
  8.569574842E-02  3.705709831E-04
  8.690476598E-02  3.705709831E-04
  8.812231542E-02  3.705709831E-04
  8.934795851E-02  3.705709831E-04
  9.058187338E-02  3.705709831E-04
  9.182561075E-02  3.705709831E-04
  9.307875036E-02  3.705709831E-04
  9.434030158E-02  3.705709831E-04
  9.561032445E-02  3.705709831E-04
  9.688979419E-02  3.705709831E-04
  9.817956055E-02  3.705709831E-04
  9.947808302E-02  3.705709831E-04
  1.007852927E-01  3.705709831E-04
  1.021015483E-01  3.705709831E-04
  1.034289361E-01  3.705709831E-04
  1.047654046E-01  3.705709831E-04
  1.061108739E-01  3.705709831E-04
  1.074654724E-01  3.705709831E-04
  1.088311206E-01  3.705709831E-04
  1.102066974E-01  3.705709831E-04
  1.115915582E-01  3.705709831E-04
  1.129857494E-01  3.705709831E-04
  1.143907967E-01  3.705709831E-04
  1.158065159E-01  3.705709831E-04
  1.172318082E-01  3.705709831E-04
  1.186667186E-01  3.705709831E-04
  1.201120805E-01  3.705709831E-04
  1.215692915E-01  3.705709831E-04
  1.230363754E-01  3.705709831E-04
  1.245134680E-01  3.705709831E-04
  1.259997144E-01  3.705709831E-04
  1.274859482E-01  3.705709831E-04
  1.289630527E-01  3.705709831E-04
  1.304301303E-01  3.705709831E-04
  1.318873342E-01  3.705709831E-04
  1.333326992E-01  3.705709831E-04
  1.347676082E-01  3.705709831E-04
  1.361929370E-01  3.705709831E-04
  1.376086979E-01  3.705709831E-04
  1.390136797E-01  3.705709831E-04
  1.404078634E-01  3.705709831E-04
  1.417927253E-01  3.705709831E-04
  1.431682884E-01  3.705709831E-04
  1.445339374E-01  3.705709831E-04
  1.458885524E-01  3.705709831E-04
  1.472340073E-01  3.705709831E-04
  1.485705048E-01  3.705709831E-04
  1.498979628E-01  3.705709831E-04
  1.512141481E-01  3.705709831E-04
  1.525213298E-01  3.705709831E-04
  1.538198671E-01  3.705709831E-04
  1.551096231E-01  3.705709831E-04
  1.563890883E-01  3.705709831E-04
  1.576591219E-01  3.705709831E-04
  1.589206757E-01  3.705709831E-04
  1.601737962E-01  3.705709831E-04
  1.614175349E-01  3.705709831E-04
  1.626515303E-01  3.705709831E-04
  1.638771635E-01  3.705709831E-04
  1.650946451E-01  3.705709831E-04
  1.663036656E-01  3.705709831E-04
  1.675026435E-01  3.705709831E-04
  1.686934975E-01  3.705709831E-04
  1.698764180E-01  3.705709831E-04
  1.710512896E-01  3.705709831E-04
  1.722164899E-01  3.705709831E-04
  1.733735167E-01  3.705709831E-04
  1.745227469E-01  3.705709831E-04
  1.756641989E-01  3.705709831E-04
  1.767968908E-01  3.705709831E-04
  1.779210844E-01  3.705709831E-04
  1.790376339E-01  3.705709831E-04
  1.801466897E-01  3.705709831E-04
  1.812476600E-01  3.705709831E-04
  1.823398737E-01  3.705709833E-04
  1.834247471E-01  3.705709827E-04
  1.845023749E-01  3.705709840E-04
  1.855724462E-01  3.705709833E-04
  1.866337431E-01  3.705709768E-04
  1.876877349E-01  3.705710077E-04
  1.887346174E-01  3.705709294E-04
  1.897744318E-01  3.705710111E-04
  1.908059552E-01  3.705712543E-04
  1.918299786E-01  3.705697030E-04
  1.928471274E-01  3.705742619E-04
  1.938574613E-01  3.705674879E-04
  1.948599456E-01  3.705607694E-04
  1.958545460E-01  3.706351803E-04
  1.968414678E-01  3.703809423E-04
  1.978189532E-01  3.709402162E-04
  1.987849275E-01  3.840661382E-04
  1.997394922E-01  4.347776136E-04
  2.006860570E-01  5.242559898E-04
  2.016258407E-01  6.498427024E-04
  2.025586782E-01  8.114265841E-04
  2.034849719E-01  1.007871453E-03
  2.044048923E-01  1.238347761E-03
  2.053182613E-01  1.501912612E-03
  2.062250838E-01  1.797575315E-03
  2.071259701E-01  2.124874254E-03
  2.080206730E-01  2.482871787E-03
  2.089089901E-01  2.870493704E-03
  2.097909631E-01  3.286816794E-03
  2.106670874E-01  3.731563841E-03
  2.115377009E-01  4.204248452E-03
  2.124023556E-01  4.703090116E-03
  2.132613737E-01  5.225934507E-03
  2.141154647E-01  5.770164625E-03
  2.149648951E-01  6.333400947E-03
  2.158091693E-01  6.911984383E-03
  2.166483748E-01  7.503444563E-03
  2.174826731E-01  8.105466364E-03
  2.183119338E-01  8.715464148E-03
  2.191362134E-01  9.330911915E-03
  2.199555397E-01  9.949816962E-03
  2.207698619E-01  1.057024919E-02
  2.215789201E-01  1.118925640E-02
  2.223825437E-01  1.180541407E-02
  2.231806978E-01  1.241917318E-02
  2.239732142E-01  1.303093449E-02
  2.247597650E-01  1.364073075E-02
  2.255402325E-01  1.424904900E-02
  2.263150349E-01  1.485716939E-02
  2.270842817E-01  1.546548874E-02
  2.278478057E-01  1.607428314E-02
  2.286055309E-01  1.668349941E-02
  2.293578121E-01  1.729426742E-02
  2.301047460E-01  1.790703584E-02
  2.308463056E-01  1.852220942E-02
  2.315826005E-01  1.913956300E-02
  2.323139579E-01  1.975941781E-02
  2.330411141E-01  2.037940342E-02
  2.337644838E-01  2.099643756E-02
  2.344837630E-01  2.160572972E-02
  2.351990235E-01  2.220365176E-02
  2.359106465E-01  2.278826898E-02
  2.366187614E-01  2.335688374E-02
  2.373226609E-01  2.390525848E-02
  2.380222216E-01  2.442872120E-02
  2.387216621E-01  2.493000790E-02
  2.394229772E-01  2.540637620E-02
  2.401257310E-01  2.585395238E-02
  2.408278443E-01  2.626555167E-02
  2.415313255E-01  2.664119043E-02
  2.422367633E-01  2.697712510E-02
  2.429434849E-01  2.726920925E-02
  2.436481391E-01  2.751330592E-02
  2.443520920E-01  2.771442530E-02
  2.450552385E-01  2.787649698E-02
  2.457569441E-01  2.800339718E-02
  2.464566192E-01  2.809911663E-02
  2.471546467E-01  2.816782340E-02
  2.478514494E-01  2.821490197E-02
  2.485469045E-01  2.824115094E-02
  2.492403765E-01  2.824835625E-02
  2.499316110E-01  2.824871728E-02
  2.506215118E-01  2.824838822E-02
  2.513108911E-01  2.824856714E-02
  2.520000041E-01  2.824850140E-02
 -1.047740006E-09  2.850293413E-02
  6.897651893E-04  2.850299959E-02
  1.379859631E-03  2.850282144E-02
  2.071087254E-03  2.850314909E-02
  2.764985095E-03  2.850278960E-02
  3.462951855E-03  2.849561645E-02
  4.164619825E-03  2.846948627E-02
  4.869035685E-03  2.842261530E-02
  5.576039463E-03  2.835422215E-02
  6.286087026E-03  2.825893576E-02
  6.999438816E-03  2.813251815E-02
  7.715629752E-03  2.797118928E-02
  8.434176327E-03  2.777103122E-02
  9.154741901E-03  2.752793978E-02
  9.876578253E-03  2.723714093E-02
  1.059726647E-02  2.690278925E-02
  1.131581769E-02  2.652885547E-02
  1.203253612E-02  2.611902119E-02
  1.274753896E-02  2.567353192E-02
  1.346052448E-02  2.519927527E-02
  1.417090936E-02  2.470016423E-02
  1.488099560E-02  2.417906526E-02
  1.559339461E-02  2.363315791E-02
  1.630867403E-02  2.306701810E-02
  1.702681577E-02  2.248500546E-02
  1.774784425E-02  2.188984844E-02
  1.847139043E-02  2.128328588E-02
  1.919755839E-02  2.066902228E-02
  1.992653183E-02  2.005181013E-02
  2.065880028E-02  1.943473004E-02
  2.139557584E-02  1.882014776E-02
  2.213718495E-02  1.820773445E-02
  2.288400353E-02  1.759771315E-02
  2.363629123E-02  1.698968341E-02
  2.439435881E-02  1.638319851E-02
  2.515799617E-02  1.577713303E-02
  2.592742181E-02  1.517153351E-02
  2.670273969E-02  1.456614827E-02
  2.748406053E-02  1.396055883E-02
  2.827124901E-02  1.335349307E-02
  2.906442145E-02  1.274446945E-02
  2.986350335E-02  1.213347023E-02
  3.066812677E-02  1.152006976E-02
  3.147771226E-02  1.090383642E-02
  3.229182072E-02  1.028619648E-02
  3.311029587E-02  9.670074191E-03
  3.393289039E-02  9.057381159E-03
  3.475951895E-02  8.450117124E-03
  3.559013739E-02  7.850800252E-03
  3.642475309E-02  7.261991081E-03
  3.726334410E-02  6.686009780E-03
  3.810577753E-02  6.125303818E-03
  3.895205717E-02  5.583504918E-03
  3.980227669E-02  5.063016093E-03
  4.065702862E-02  4.566420103E-03
  4.151684573E-02  4.095862812E-03
  4.238195608E-02  3.653113055E-03
  4.325257798E-02  3.238655965E-03
  4.412901065E-02  2.852764835E-03
  4.501139600E-02  2.496378196E-03
  4.589968686E-02  2.170553865E-03
  4.679386573E-02  1.876219649E-03
  4.769414100E-02  1.613844381E-03
  4.860065755E-02  1.384405136E-03
  4.951348350E-02  1.188847525E-03
  5.043276314E-02  1.027990798E-03
  5.135893344E-02  9.029691139E-04
  5.229230138E-02  8.138998839E-04
  5.323540146E-02  7.634251135E-04
  5.419280543E-02  7.503564998E-04
  5.516537330E-02  7.497985710E-04
  5.615013855E-02  7.500522894E-04
  5.714380175E-02  7.499780282E-04
  5.814561102E-02  7.499847319E-04
  5.915531616E-02  7.499914915E-04
  6.017213692E-02  7.499869421E-04
  6.119602794E-02  7.499884902E-04
  6.222744949E-02  7.499882475E-04
  6.326683383E-02  7.499881659E-04
  6.431356310E-02  7.499882441E-04
  6.536749326E-02  7.499882133E-04
  6.642879883E-02  7.499882198E-04
  6.749855489E-02  7.499882204E-04
  6.857593928E-02  7.499882192E-04
  6.966072681E-02  7.499882197E-04
  7.075310196E-02  7.499882196E-04
  7.185385043E-02  7.499882196E-04
  7.296269372E-02  7.499882196E-04
  7.407917944E-02  7.499882196E-04
  7.520343637E-02  7.499882196E-04
  7.633612091E-02  7.499882196E-04
  7.747730413E-02  7.499882196E-04
  7.862642743E-02  7.499882196E-04
  7.978353193E-02  7.499882196E-04
  8.094895454E-02  7.499882196E-04
  8.212351611E-02  7.499882196E-04
  8.330628939E-02  7.499882196E-04
  8.449714593E-02  7.499882196E-04
  8.569633999E-02  7.499882196E-04
  8.690505315E-02  7.499882196E-04
  8.812240836E-02  7.499882196E-04
  8.934809808E-02  7.499882196E-04
  9.058229577E-02  7.499882196E-04
  9.182592876E-02  7.499882196E-04
  9.307879441E-02  7.499882196E-04
  9.434030634E-02  7.499882196E-04
  9.561052787E-02  7.499882196E-04
  9.689010797E-02  7.499882196E-04
  9.817954925E-02  7.499882196E-04
  9.947796152E-02  7.499882196E-04
  1.007852333E-01  7.499882196E-04
  1.021017127E-01  7.499882196E-04
  1.034288332E-01  7.499882196E-04
  1.047652108E-01  7.499882196E-04
  1.061106723E-01  7.499882196E-04
  1.074655150E-01  7.499882196E-04
  1.088310495E-01  7.499882196E-04
  1.102064325E-01  7.499882196E-04
  1.115912508E-01  7.499882196E-04
  1.129856402E-01  7.499882196E-04
  1.143905886E-01  7.499882196E-04
  1.158061189E-01  7.499882196E-04
  1.172314053E-01  7.499882196E-04
  1.186664141E-01  7.499882196E-04
  1.201118714E-01  7.499882196E-04
  1.215687730E-01  7.499882196E-04
  1.230357981E-01  7.499882196E-04
  1.245131583E-01  7.499882196E-04
  1.259993782E-01  7.499882196E-04
  1.274855831E-01  7.499882196E-04
  1.289629194E-01  7.499882196E-04
  1.304299132E-01  7.499882196E-04
  1.318868198E-01  7.499882196E-04
  1.333323144E-01  7.499882196E-04
  1.347673014E-01  7.499882196E-04
  1.361926068E-01  7.499882196E-04
  1.376081979E-01  7.499882196E-04
  1.390131038E-01  7.499882196E-04
  1.404074512E-01  7.499882196E-04
  1.417922582E-01  7.499882196E-04
  1.431676460E-01  7.499882196E-04
  1.445331761E-01  7.499882196E-04
  1.458880129E-01  7.499882196E-04
  1.472335215E-01  7.499882196E-04
  1.485699126E-01  7.499882196E-04
  1.498969817E-01  7.499882196E-04
  1.512134886E-01  7.499882196E-04
  1.525207858E-01  7.499882196E-04
  1.538192284E-01  7.499882196E-04
  1.551086819E-01  7.499882196E-04
  1.563881823E-01  7.499882196E-04
  1.576583805E-01  7.499882196E-04
  1.589199184E-01  7.499882196E-04
  1.601728107E-01  7.499882196E-04
  1.614164655E-01  7.499882196E-04
  1.626506463E-01  7.499882196E-04
  1.638763087E-01  7.499882196E-04
  1.650936441E-01  7.499882196E-04
  1.663023551E-01  7.499882196E-04
  1.675015839E-01  7.499882196E-04
  1.686924541E-01  7.499882196E-04
  1.698752487E-01  7.499882196E-04
  1.710498434E-01  7.499882196E-04
  1.722151953E-01  7.499882196E-04
  1.733722640E-01  7.499882196E-04
  1.745214290E-01  7.499882196E-04
  1.756626426E-01  7.499882196E-04
  1.767952737E-01  7.499882196E-04
  1.779195602E-01  7.499882196E-04
  1.790360766E-01  7.499882196E-04
  1.801448868E-01  7.499882196E-04
  1.812456089E-01  7.499882196E-04
  1.823380021E-01  7.499882197E-04
  1.834228308E-01  7.499882192E-04
  1.845002025E-01  7.499882204E-04
  1.855699153E-01  7.499882198E-04
  1.866312938E-01  7.499882133E-04
  1.876852324E-01  7.499882441E-04
  1.887319078E-01  7.499881661E-04
  1.897712672E-01  7.499882474E-04
  1.908026914E-01  7.499884895E-04
  1.918265791E-01  7.499869452E-04
  1.928434106E-01  7.499914836E-04
  1.938531606E-01  7.499847400E-04
  1.948550048E-01  7.499780517E-04
  1.958486097E-01  7.500521290E-04
  1.968333342E-01  7.497990307E-04
  1.978059130E-01  7.503557973E-04
  1.987633191E-01  7.634228722E-04
  1.997064100E-01  8.139069939E-04
  2.006397821E-01  9.029842137E-04
  2.015659854E-01  1.028007886E-03
  2.024852704E-01  1.188867342E-03
  2.033980337E-01  1.384431495E-03
  2.043046019E-01  1.613874514E-03
  2.052048772E-01  1.876257730E-03
  2.060989587E-01  2.170594895E-03
  2.069872850E-01  2.496426462E-03
  2.078696650E-01  2.852818993E-03
  2.087460923E-01  3.238703093E-03
  2.096167415E-01  3.653159690E-03
  2.104818151E-01  4.095912813E-03
  2.113415796E-01  4.566478248E-03
  2.121963385E-01  5.063083466E-03
  2.130466071E-01  5.583583800E-03
  2.138929085E-01  6.125373983E-03
  2.147353340E-01  6.686085161E-03
  2.155739252E-01  7.262074647E-03
  2.164086110E-01  7.850883146E-03
  2.172393392E-01  8.450205916E-03
  2.180659881E-01  9.057468911E-03
  2.188885959E-01  9.670157455E-03
  2.197071219E-01  1.028628778E-02
  2.205212769E-01  1.090393844E-02
  2.213308718E-01  1.152017046E-02
  2.221355082E-01  1.213356573E-02
  2.229346641E-01  1.274457319E-02
  2.237279901E-01  1.335359180E-02
  2.245152588E-01  1.396065418E-02
  2.252964644E-01  1.456624516E-02
  2.260717350E-01  1.517163918E-02
  2.268412672E-01  1.577723127E-02
  2.276049796E-01  1.638329628E-02
  2.283630330E-01  1.698978126E-02
  2.291154245E-01  1.759781103E-02
  2.298623259E-01  1.820783223E-02
  2.306038760E-01  1.882024782E-02
  2.313406790E-01  1.943483364E-02
  2.320731031E-01  2.005190946E-02
  2.328022133E-01  2.066911550E-02
  2.335283637E-01  2.128338331E-02
  2.342518764E-01  2.188994384E-02
  2.349729162E-01  2.248518523E-02
  2.356911514E-01  2.306718145E-02
  2.364065034E-01  2.363324695E-02
  2.371187947E-01  2.417916318E-02
  2.378289839E-01  2.470027906E-02
  2.385394475E-01  2.519931836E-02
  2.392524073E-01  2.567355097E-02
  2.399674185E-01  2.611912054E-02
  2.406841880E-01  2.652887452E-02
  2.414027486E-01  2.690282918E-02
  2.421234113E-01  2.723725776E-02
  2.428452524E-01  2.752803242E-02
  2.435659064E-01  2.777103474E-02
  2.442844083E-01  2.797125244E-02
  2.450006157E-01  2.813259751E-02
  2.457140456E-01  2.825892878E-02
  2.464240531E-01  2.835421909E-02
  2.471310647E-01  2.842261783E-02
  2.478354975E-01  2.846948534E-02
  2.485371443E-01  2.849561663E-02
  2.492350833E-01  2.850278963E-02
  2.499289699E-01  2.850314904E-02
  2.506202287E-01  2.850282146E-02
  2.513103376E-01  2.850299958E-02
  2.520000041E-01  2.850293413E-02
 -1.047740006E-09  2.876338532E-02
  6.907291851E-04  2.876345048E-02
  1.382046990E-03  2.876327315E-02
  2.075100266E-03  2.876359929E-02
  2.771995859E-03  2.876324146E-02
  3.474596775E-03  2.875610137E-02
  4.182466964E-03  2.873009166E-02
  4.894456543E-03  2.868343676E-02
  5.610387569E-03  2.861535891E-02
  6.330714987E-03  2.852051179E-02
  7.055562420E-03  2.839467696E-02
  7.784567680E-03  2.823409181E-02
  8.517279794E-03  2.803485648E-02
  9.252991170E-03  2.779288569E-02
  9.989674106E-03  2.750342742E-02
  1.072523578E-02  2.717061711E-02
  1.145842036E-02  2.679840716E-02
  1.218918750E-02  2.639046221E-02
  1.291656937E-02  2.594702664E-02
  1.364109050E-02  2.547495631E-02
  1.436231322E-02  2.497814618E-02
  1.508263788E-02  2.445944946E-02
  1.580362853E-02  2.391605875E-02
  1.652647647E-02  2.335252883E-02
  1.725131564E-02  2.277319927E-02
  1.797807982E-02  2.218078592E-02
  1.870610891E-02  2.157701961E-02
  1.943542527E-02  2.096558777E-02
  2.016666102E-02  2.035122096E-02
  2.090035927E-02  1.973698560E-02
  2.163787910E-02  1.912523655E-02
  2.237976014E-02  1.851564646E-02
  2.312686989E-02  1.790843735E-02
  2.387950907E-02  1.730321063E-02
  2.463788374E-02  1.669952162E-02
  2.540177036E-02  1.609625010E-02
  2.617161420E-02  1.549344239E-02
  2.694743564E-02  1.489084798E-02
  2.772933902E-02  1.428805030E-02
  2.851722805E-02  1.368378311E-02
  2.931113935E-02  1.307756708E-02
  3.011093782E-02  1.246938456E-02
  3.091621150E-02  1.185881187E-02
  3.172614714E-02  1.124541936E-02
  3.253986630E-02  1.063062674E-02
  3.335735070E-02  1.001734477E-02
  3.417814247E-02  9.407476251E-03
  3.500198665E-02  8.803011700E-03
  3.582901963E-02  8.206457675E-03
  3.665900084E-02  7.620362912E-03
  3.749185671E-02  7.047036882E-03
  3.832751527E-02  6.488915772E-03
  3.916612595E-02  5.949614562E-03
  4.000772767E-02  5.431525188E-03
  4.085282861E-02  4.937218502E-03
  4.170214373E-02  4.468830479E-03
  4.255638272E-02  4.028121796E-03
  4.341576925E-02  3.615575350E-03
  4.428051125E-02  3.231463177E-03
  4.515082553E-02  2.876719479E-03
  4.602675303E-02  2.552397195E-03
  4.690833374E-02  2.259419859E-03
  4.779576221E-02  1.998254140E-03
  4.868920429E-02  1.769872609E-03
  4.958877714E-02  1.575216517E-03
  5.049480156E-02  1.415101339E-03
  5.140790780E-02  1.290656004E-03
  5.232880696E-02  1.201997383E-03
  5.326105156E-02  1.151755301E-03
  5.421024719E-02  1.138746933E-03
  5.517748354E-02  1.138191577E-03
  5.615928483E-02  1.138444125E-03
  5.715133507E-02  1.138370206E-03
  5.815200693E-02  1.138376879E-03
  5.916079143E-02  1.138383608E-03
  6.017704373E-02  1.138379079E-03
  6.120056800E-02  1.138380620E-03
  6.223160903E-02  1.138380379E-03
  6.327047928E-02  1.138380297E-03
  6.431684221E-02  1.138380375E-03
  6.537055801E-02  1.138380345E-03