# GRID_PARAMS_SHA256=08cbc6a34a9afef49b986a788fa2ab76e40a6560552f5ee9375a06b948e2d866
# GRID_PARAMS_JSON={"alpha":0.5,"boundary_condition":"fixed_resampled_boundaries","gamma":2.0,"generator":"periodic_hill_steger_sorenson","hill_shape":{"ly":9.0,"profile":"Mellen-Frohlich-Rodi periodic hill polynomial","reference_height":1.0,"scale":1.9285714285714286},"interpolation":{"boundary":"scipy_cubic","pq":"scipy_rect_bivariate_spline"},"ly":9.0,"lz":3.036,"mode":"adaptive_poisson","ni":129,"nj":65,"poisson":{"control_functions":"reverse_computed_PQ","max_iter":100000,"omega":1.0,"print_every":2000,"require_converged":true,"tol":1e-12},"reference_grid":"3.fine grid.dat","schema":1,"vertical_redistribution":"physical_z_vinokur_tanh"}
TITLE     = "Periodic hill 129x65"
VARIABLES = "x corner"
"y corner"
ZONE T="I129_J65_g2.00_a0.5"
 I=129, J=65, K=1,F=POINT
DT=(SINGLE SINGLE )
 -1.164150026E-10  2.800000086E-02
  1.378127721E-03  2.799988716E-02
  2.756257932E-03  2.799985505E-02
  4.134577991E-03  2.796625525E-02
  5.512844455E-03  2.784996506E-02
  6.891920540E-03  2.762628746E-02
  8.270541207E-03  2.726158259E-02
  9.649749933E-03  2.672293965E-02
  1.102755271E-02  2.600834908E-02
  1.240517434E-02  2.514541149E-02
  1.378316558E-02  2.416337895E-02
  1.516748195E-02  2.308687420E-02
  1.657355398E-02  2.192850097E-02
  1.799814533E-02  2.071608376E-02
  1.944479935E-02  1.947364550E-02
  2.091177450E-02  1.823101895E-02
  2.240094494E-02  1.699770230E-02
  2.391081267E-02  1.577237613E-02
  2.544349941E-02  1.454992497E-02
  2.699739671E-02  1.332817026E-02
  2.857472819E-02  1.210125533E-02
  3.017380341E-02  1.086595611E-02
  3.179656565E-02  9.621098976E-03
  3.344223715E-02  8.381344819E-03
  3.511187224E-02  7.164023006E-03
  3.680541982E-02  5.988863644E-03
  3.852393270E-02  4.876544355E-03
  4.026669839E-02  3.850405516E-03
  4.203602159E-02  2.928968267E-03
  4.382970006E-02  2.121495399E-03
  4.565065053E-02  1.433211429E-03
  4.749688934E-02  8.715461536E-04
  4.937040061E-02  4.427660024E-04
  5.127119491E-02  1.543427204E-04
  5.319863796E-02  1.355650831E-05
  5.515540482E-02 -1.913368042E-07
  5.713847466E-02 -1.028210947E-08
  5.915169772E-02  3.301058382E-09
  6.119284310E-02  2.729736732E-10
  6.326433819E-02 -5.414312922E-11
  6.536540016E-02 -6.383938517E-12
  6.749672186E-02  8.301380416E-13
  6.965934951E-02  1.385939974E-13
  7.185238414E-02 -1.148213469E-14
  7.407832239E-02 -2.853620118E-15
  7.633481267E-02  1.318389842E-16
  7.862600079E-02  5.551115123E-17
  8.094775211E-02  1.734723476E-18
  8.330610022E-02  1.734723476E-18
  8.569536591E-02 -1.734723476E-18
  8.812245214E-02  0.000000000E+00
  9.058170906E-02  0.000000000E+00
  9.307893645E-02  1.734723476E-18
  9.561037575E-02 -1.734723476E-18
  9.817980742E-02  0.000000000E+00
  1.007854447E-01  0.000000000E+00
  1.034291983E-01  0.000000000E+00
  1.061111654E-01  0.000000000E+00
  1.088313624E-01  0.000000000E+00
  1.115919740E-01  0.000000000E+00
  1.143908985E-01  0.000000000E+00
  1.172323464E-01  0.000000000E+00
  1.201121322E-01  0.000000000E+00
  1.230369478E-01  0.000000000E+00
  1.260001063E-01  0.000000000E+00
  1.289631492E-01  0.000000000E+00
  1.318879687E-01  0.000000000E+00
  1.347677545E-01  0.000000000E+00
  1.376092881E-01  0.000000000E+00
  1.404081294E-01  0.000000000E+00
  1.431687400E-01  0.000000000E+00
  1.458889376E-01  0.000000000E+00
  1.485708989E-01  0.000000000E+00
  1.512146578E-01  0.000000000E+00
  1.538202986E-01  0.000000000E+00
  1.563897188E-01 -3.469446952E-18
  1.589211598E-01  3.469446952E-18
  1.614183918E-01  0.000000000E+00
  1.638776520E-01  0.000000000E+00
  1.663047425E-01  0.000000000E+00
  1.686940044E-01  0.000000000E+00
  1.710524499E-01  3.469446952E-18
  1.733740960E-01  5.551115123E-17
  1.756652883E-01  1.318389842E-16
  1.779217738E-01 -2.844946501E-15
  1.801477168E-01 -1.145611384E-14
  1.823407514E-01  1.382574610E-13
  1.845033774E-01  8.281292319E-13
  1.866347715E-01 -6.369231531E-12
  1.887357617E-01 -5.401172565E-11
  1.908072541E-01  2.723157186E-10
  1.928484057E-01  3.293094214E-09
  1.948617110E-01 -1.025842455E-08
  1.968446983E-01 -1.908730142E-07
  1.988014630E-01  1.355424699E-05
  2.007289019E-01  1.543579547E-04
  2.026297003E-01  4.427859967E-04
  2.045032657E-01  8.715765544E-04
  2.063494541E-01  1.433252825E-03
  2.081704061E-01  2.121550038E-03
  2.099641623E-01  2.929015317E-03
  2.117334041E-01  3.850464178E-03
  2.134761735E-01  4.876623939E-03
  2.151946847E-01  5.988939696E-03
  2.168882540E-01  7.164106639E-03
  2.185579663E-01  8.381433352E-03
  2.202035987E-01  9.621191087E-03
  2.218263003E-01  1.086605771E-02
  2.234253737E-01  1.210136000E-02
  2.250027899E-01  1.332826646E-02
  2.265565900E-01  1.455003157E-02
  2.280892881E-01  1.577247476E-02
  2.295991540E-01  1.699780105E-02
  2.310883208E-01  1.823111989E-02
  2.325553590E-01  1.947374571E-02
  2.340020469E-01  2.071618206E-02
  2.354265356E-01  2.192868234E-02
  2.368327104E-01  2.308696403E-02
  2.382169268E-01  2.416349480E-02
  2.395949318E-01  2.514543071E-02
  2.409725546E-01  2.600836829E-02
  2.423503468E-01  2.672305752E-02
  2.437295686E-01  2.726158615E-02
  2.451081814E-01  2.762636753E-02
  2.464872627E-01  2.784996197E-02
  2.478655289E-01  2.796625431E-02
  2.492438495E-01  2.799985507E-02
  2.506219652E-01  2.799988718E-02
  2.520000935E-01  2.800000086E-02
 -1.047740006E-09  2.850293413E-02
  1.379950218E-03  2.850282144E-02
  2.764590482E-03  2.850278960E-02
  4.164785160E-03  2.846948627E-02
  5.576179484E-03  2.835422215E-02
  7.000182670E-03  2.813251815E-02
  8.434626439E-03  2.777103122E-02
  9.876611471E-03  2.723714093E-02
  1.131734249E-02  2.652885547E-02
  1.274878883E-02  2.567353192E-02
  1.417063512E-02  2.470016423E-02
  1.559225657E-02  2.363315791E-02
  1.702617543E-02  2.248500546E-02
  1.847023795E-02  2.128328588E-02
  1.992690620E-02  2.005181013E-02
  2.139338661E-02  1.882014776E-02
  2.288696328E-02  1.759771315E-02
  2.439712632E-02  1.638319851E-02
  2.592983285E-02  1.517153351E-02
  2.748534592E-02  1.396055883E-02
  2.906364218E-02  1.274446945E-02
  3.067070268E-02  1.152006976E-02
  3.229487942E-02  1.028619648E-02
  3.393377853E-02  9.057381159E-03
  3.559082332E-02  7.850800252E-03
  3.726611971E-02  6.686009780E-03
  3.895247206E-02  5.583504918E-03
  4.065816065E-02  4.566420103E-03
  4.238450497E-02  3.653113055E-03
  4.413027740E-02  2.852764835E-03
  4.590008337E-02  2.170553865E-03
  4.769362065E-02  1.613844381E-03
  4.951460116E-02  1.188847525E-03
  5.135999232E-02  9.029691139E-04
  5.323489221E-02  7.634251135E-04
  5.516520719E-02  7.497985710E-04
  5.714592139E-02  7.499780282E-04
  5.915770681E-02  7.499914915E-04
  6.119601731E-02  7.499884902E-04
  6.326596808E-02  7.499881659E-04
  6.536889025E-02  7.499882133E-04
  6.749911864E-02  7.499882204E-04
  6.965983689E-02  7.499882197E-04
  7.185255682E-02  7.499882196E-04
  7.407951958E-02  7.499882196E-04
  7.633624500E-02  7.499882196E-04
  7.862660041E-02  7.499882196E-04
  8.094825667E-02  7.499882196E-04
  8.330411982E-02  7.499882196E-04
  8.569596900E-02  7.499882196E-04
  8.812355547E-02  7.499882196E-04
  9.058125419E-02  7.499882196E-04
  9.307992269E-02  7.499882196E-04
  9.561249056E-02  7.499882196E-04
  9.818075934E-02  7.499882196E-04
  1.007849553E-01  7.499882196E-04
  1.034287170E-01  7.499882196E-04
  1.061117723E-01  7.499882196E-04
  1.088289047E-01  7.499882196E-04
  1.115894455E-01  7.499882196E-04
  1.143895420E-01  7.499882196E-04
  1.172286846E-01  7.499882196E-04
  1.201105641E-01  7.499882196E-04
  1.230350803E-01  7.499882196E-04
  1.259941742E-01  7.499882196E-04
  1.289605182E-01  7.499882196E-04
  1.318863291E-01  7.499882196E-04
  1.347642157E-01  7.499882196E-04
  1.376071911E-01  7.499882196E-04
  1.404065898E-01  7.499882196E-04
  1.431669971E-01  7.499882196E-04
  1.458875406E-01  7.499882196E-04
  1.485695336E-01  7.499882196E-04
  1.512122869E-01  7.499882196E-04
  1.538170502E-01  7.499882196E-04
  1.563871512E-01  7.499882196E-04
  1.589187022E-01  7.499882196E-04
  1.614156208E-01  7.499882196E-04
  1.638719681E-01  7.499882196E-04
  1.663005008E-01  7.499882196E-04
  1.686865589E-01  7.499882196E-04
  1.710472217E-01  7.499882196E-04
  1.733706955E-01  7.499882196E-04
  1.756608438E-01  7.499882196E-04
  1.779194835E-01  7.499882196E-04
  1.801435990E-01  7.499882196E-04
  1.823368844E-01  7.499882197E-04
  1.844993779E-01  7.499882204E-04
  1.866307955E-01  7.499882133E-04
  1.887323099E-01  7.499881661E-04
  1.908032809E-01  7.499884895E-04
  1.928429406E-01  7.499914836E-04
  1.948543695E-01  7.499780517E-04
  1.968359822E-01  7.497990307E-04
  1.987657378E-01  7.634228722E-04
  2.006408789E-01  9.029842137E-04
  2.024837991E-01  1.188867342E-03
  2.043049970E-01  1.613874514E-03
  2.060992862E-01  2.170594895E-03
  2.078670736E-01  2.852818993E-03
  2.096154038E-01  3.653159690E-03
  2.113429547E-01  4.566478248E-03
  2.130482315E-01  5.583583800E-03
  2.147346887E-01  6.686085161E-03
  2.164111763E-01  7.850883146E-03
  2.180667362E-01  9.057468911E-03
  2.197082899E-01  1.028628778E-02
  2.213352469E-01  1.152017046E-02
  2.229354189E-01  1.274457319E-02
  2.245156596E-01  1.396065418E-02
  2.260676490E-01  1.517163918E-02
  2.275989672E-01  1.638329628E-02
  2.291143912E-01  1.759781103E-02
  2.306025135E-01  1.882024782E-02
  2.320704176E-01  2.005190946E-02
  2.335282963E-01  2.128338331E-02
  2.349722386E-01  2.248518523E-02
  2.364034309E-01  2.363324695E-02
  2.378271732E-01  2.470027906E-02
  2.392519533E-01  2.567355097E-02
  2.406825774E-01  2.652887452E-02
  2.421232768E-01  2.723725776E-02
  2.435656104E-01  2.777103474E-02
  2.449998174E-01  2.813259751E-02
  2.464237181E-01  2.835421909E-02
  2.478338895E-01  2.846948534E-02
  2.492336289E-01  2.850278963E-02
  2.506199680E-01  2.850282146E-02
  2.520000041E-01  2.850293413E-02
 -1.047740006E-09  2.902993935E-02
  1.385056710E-03  2.902982771E-02
  2.779756778E-03  2.902979617E-02
  4.202142154E-03  2.899680349E-02
  5.646701717E-03  2.888261456E-02
  7.114131221E-03  2.866297861E-02
  8.601928010E-03  2.830486364E-02
  1.010348302E-02  2.777595348E-02
  1.160317072E-02  2.707427492E-02
  1.308687040E-02  2.622692983E-02
  1.455236899E-02  2.526264173E-02
  1.601350350E-02  2.420558845E-02
  1.747406259E-02  2.306814598E-02
  1.893910617E-02  2.187763605E-02
  2.040670187E-02  2.065764753E-02
  2.187887656E-02  1.943747411E-02
  2.337502577E-02  1.822644238E-02
  2.488779743E-02  1.702325675E-02
  2.642045738E-02  1.582289418E-02
  2.797928289E-02  1.462321548E-02
  2.955716013E-02  1.341846979E-02
  3.116604078E-02  1.220549131E-02
  3.279133913E-02  1.098312762E-02
  3.442434662E-02  9.765774697E-03
  3.606920755E-02  8.570448789E-03
  3.772401609E-02  7.416523495E-03
  3.938179832E-02  6.324302810E-03
  4.105270814E-02  5.316705372E-03
  4.273557601E-02  4.411917662E-03
  4.443599447E-02  3.619035099E-03
  4.615697484E-02  2.943187799E-03
  4.789988588E-02  2.391671307E-03
  4.966838384E-02  1.970638826E-03
  5.146042933E-02  1.687427092E-03
  5.328994791E-02  1.549184759E-03
  5.519265864E-02  1.535685325E-03
  5.716414582E-02  1.535863109E-03
  5.917230105E-02  1.535876446E-03
  6.120797955E-02  1.535873473E-03
  6.327485155E-02  1.535873152E-03
  6.537710805E-02  1.535873199E-03
  6.750619039E-02  1.535873206E-03
  6.966474915E-02  1.535873205E-03
  7.185826784E-02  1.535873205E-03
  7.408383849E-02  1.535873205E-03
  7.634060990E-02  1.535873205E-03
  7.862843633E-02  1.535873205E-03
  8.094921695E-02  1.535873205E-03
  8.330503979E-02  1.535873205E-03
  8.569687255E-02  1.535873205E-03
  8.812401120E-02  1.535873205E-03
  9.058150426E-02  1.535873205E-03
  9.308128369E-02  1.535873205E-03
  9.561383564E-02  1.535873205E-03
  9.818147049E-02  1.535873205E-03
  1.007869382E-01  1.535873205E-03
  1.034280682E-01  1.535873205E-03
  1.061116735E-01  1.535873205E-03
  1.088268462E-01  1.535873205E-03
  1.115881650E-01  1.535873205E-03
  1.143898936E-01  1.535873205E-03
  1.172261927E-01  1.535873205E-03
  1.201088857E-01  1.535873205E-03
  1.230343818E-01  1.535873205E-03
  1.259909923E-01  1.535873205E-03
  1.289585989E-01  1.535873205E-03
  1.318843002E-01  1.535873205E-03
  1.347630110E-01  1.535873205E-03
  1.376039125E-01  1.535873205E-03
  1.404040119E-01  1.535873205E-03
  1.431652640E-01  1.535873205E-03
  1.458871297E-01  1.535873205E-03
  1.485658853E-01  1.535873205E-03
  1.512090701E-01  1.535873205E-03
  1.538130422E-01  1.535873205E-03
  1.563834540E-01  1.535873205E-03
  1.589173402E-01  1.535873205E-03
  1.614109030E-01  1.535873205E-03
  1.638680058E-01  1.535873205E-03
  1.662941450E-01  1.535873205E-03
  1.686801548E-01  1.535873205E-03
  1.710425058E-01  1.535873205E-03
  1.733648414E-01  1.535873205E-03
  1.756554215E-01  1.535873205E-03
  1.779128437E-01  1.535873205E-03
  1.801381377E-01  1.535873205E-03
  1.823291884E-01  1.535873205E-03
  1.844898879E-01  1.535873206E-03
  1.866218243E-01  1.535873199E-03
  1.887209695E-01  1.535873152E-03
  1.907912197E-01  1.535873472E-03
  1.928286056E-01  1.535876439E-03
  1.948353036E-01  1.535863132E-03
  1.968069963E-01  1.535685781E-03
  1.987101268E-01  1.549182539E-03
  2.005377103E-01  1.687442051E-03
  2.023285774E-01  1.970658459E-03
  2.040967485E-01  2.391701159E-03
  2.058426395E-01  2.943228447E-03
  2.075610951E-01  3.619088751E-03
  2.092641798E-01  4.411963862E-03
  2.109481084E-01  5.316762975E-03
  2.126188408E-01  6.324380956E-03
  2.142767342E-01  7.416598173E-03
  2.159324148E-01  8.570530911E-03
  2.175766688E-01  9.765861631E-03
  2.192115437E-01  1.098321806E-02
  2.208373036E-01  1.220559107E-02
  2.224397661E-01  1.341857256E-02
  2.240225299E-01  1.462330994E-02
  2.255751251E-01  1.582299886E-02
  2.271085977E-01  1.702335360E-02
  2.286254093E-01  1.822653935E-02
  2.301170884E-01  1.943757324E-02
  2.315871661E-01  2.065774593E-02
  2.330572538E-01  2.187773258E-02
  2.345221943E-01  2.306832407E-02
  2.359829297E-01  2.420567666E-02
  2.374432176E-01  2.526275549E-02
  2.389139949E-01  2.622694871E-02
  2.403971722E-01  2.707429378E-02
  2.418955298E-01  2.777606923E-02
  2.433986750E-01  2.830486713E-02
  2.448858307E-01  2.866305724E-02
  2.463535490E-01  2.888261153E-02
  2.477951164E-01  2.899680257E-02
  2.492176857E-01  2.902979620E-02
  2.506148294E-01  2.902982773E-02
  2.520000041E-01  2.902993935E-02
 -1.047740006E-09  2.958168273E-02
  1.393502281E-03  2.958157218E-02
  2.801085061E-03  2.958154096E-02
  4.246557577E-03  2.954887352E-02
  5.723796240E-03  2.943581024E-02
  7.233165016E-03  2.921833943E-02
  8.772504037E-03  2.886375469E-02
  1.032970996E-02  2.834005844E-02
  1.188492190E-02  2.764529690E-02
  1.341885769E-02  2.680630480E-02
  1.492864157E-02  2.585152249E-02
  1.642618600E-02  2.480488946E-02
  1.791757631E-02  2.367865970E-02
  1.940265731E-02  2.249988562E-02
  2.088441623E-02  2.129192353E-02
  2.236362590E-02  2.008377838E-02
  2.386531062E-02  1.888468480E-02
  2.538013510E-02  1.769335997E-02
  2.691513932E-02  1.650483036E-02
  2.847465286E-02  1.531697789E-02
  3.005640582E-02  1.412410838E-02
  3.166367791E-02  1.292308724E-02
  3.328787170E-02  1.171277340E-02
  3.491438212E-02  1.050742094E-02
  3.654624825E-02  9.323878352E-03
  3.818026847E-02  8.181328258E-03
  3.981116825E-02  7.099874499E-03
  4.144700790E-02  6.102209786E-03
  4.309050437E-02  5.206341320E-03
  4.474630433E-02  4.421274858E-03
  4.641964113E-02  3.752089947E-03
  4.811504200E-02  3.206010211E-03
  4.983346994E-02  2.789128196E-03
  5.157646777E-02  2.508708316E-03
  5.336318409E-02  2.371828753E-03
  5.523926482E-02  2.358462394E-03
  5.719797208E-02  2.358638424E-03
  5.919760250E-02  2.358651631E-03
  6.122899074E-02  2.358648687E-03
  6.329176378E-02  2.358648369E-03
  6.539126391E-02  2.358648415E-03
  6.751805502E-02  2.358648422E-03
  6.967434324E-02  2.358648421E-03
  7.186661031E-02  2.358648421E-03
  7.409042295E-02  2.358648421E-03
  7.634675952E-02  2.358648421E-03
  7.863316060E-02  2.358648421E-03
  8.095253197E-02  2.358648421E-03
  8.330791888E-02  2.358648421E-03
  8.570002068E-02  2.358648421E-03
  8.812542295E-02  2.358648421E-03
  9.058390514E-02  2.358648421E-03
  9.308326733E-02  2.358648421E-03
  9.561615991E-02  2.358648421E-03
  9.818328227E-02  2.358648421E-03
  1.007890397E-01  2.358648421E-03
  1.034281828E-01  2.358648421E-03
  1.061108696E-01  2.358648421E-03
  1.088261298E-01  2.358648421E-03
  1.115876630E-01  2.358648421E-03
  1.143892231E-01  2.358648421E-03
  1.172260717E-01  2.358648421E-03
  1.201079310E-01  2.358648421E-03
  1.230329364E-01  2.358648421E-03
  1.259894982E-01  2.358648421E-03
  1.289579073E-01  2.358648421E-03
  1.318831770E-01  2.358648421E-03
  1.347616091E-01  2.358648421E-03
  1.376003853E-01  2.358648421E-03
  1.404019751E-01  2.358648421E-03
  1.431620466E-01  2.358648421E-03
  1.458839976E-01  2.358648421E-03
  1.485622885E-01  2.358648421E-03
  1.512032025E-01  2.358648421E-03
  1.538083642E-01  2.358648421E-03
  1.563781310E-01  2.358648421E-03
  1.589138358E-01  2.358648421E-03
  1.614060985E-01  2.358648421E-03
  1.638631107E-01  2.358648421E-03
  1.662869626E-01  2.358648421E-03
  1.686738435E-01  2.358648421E-03
  1.710354827E-01  2.358648421E-03
  1.733573758E-01  2.358648421E-03
  1.756468072E-01  2.358648421E-03
  1.779036520E-01  2.358648421E-03
  1.801275912E-01  2.358648421E-03
  1.823173209E-01  2.358648421E-03
  1.844766984E-01  2.358648422E-03
  1.866053897E-01  2.358648415E-03
  1.887020389E-01  2.358648369E-03
  1.907685988E-01  2.358648686E-03
  1.928023294E-01  2.358651623E-03
  1.948011639E-01  2.358638447E-03
  1.967579169E-01  2.358462845E-03
  1.986343887E-01  2.371826554E-03
  2.004194720E-01  2.508723127E-03
  2.021633249E-01  2.789147636E-03
  2.038803855E-01  3.206039768E-03
  2.055775929E-01  3.752130194E-03
  2.072501573E-01  4.421327982E-03
  2.089092730E-01  5.206387065E-03
  2.105519195E-01  6.102266821E-03
  2.121870809E-01  7.099951875E-03
  2.138196603E-01  8.181402199E-03
  2.154526515E-01  9.323959664E-03
  2.170862523E-01  1.050750702E-02
  2.187136588E-01  1.171286296E-02
  2.203369194E-01  1.292318602E-02
  2.219414722E-01  1.412421014E-02
  2.235240951E-01  1.531707142E-02
  2.250803086E-01  1.650493401E-02
  2.266165028E-01  1.769345586E-02
  2.281338941E-01  1.888478081E-02
  2.296299530E-01  2.008387653E-02
  2.311098106E-01  2.129202096E-02
  2.325916894E-01  2.249998119E-02
  2.340775374E-01  2.367883604E-02
  2.355693273E-01  2.480497680E-02
  2.370657640E-01  2.585163512E-02
  2.385825688E-01  2.680632349E-02
  2.401159581E-01  2.764531558E-02
  2.416689469E-01  2.834017304E-02
  2.432287484E-01  2.886375814E-02
  2.447670484E-01  2.921841728E-02
  2.462769845E-01  2.943580723E-02
  2.477500162E-01  2.954887260E-02
  2.491957137E-01  2.958154099E-02
  2.506070697E-01  2.958157221E-02
  2.520000041E-01  2.958168273E-02
 -1.047740006E-09  3.015879334E-02
  1.404789810E-03  3.015868394E-02
  2.827791625E-03  3.015865304E-02
  4.297075086E-03  3.012632579E-02
  5.806796211E-03  3.001443992E-02
  7.357167337E-03  2.979923379E-02
  8.945112736E-03  2.944834159E-02
  1.055638995E-02  2.893009897E-02
  1.216285758E-02  2.824257248E-02
  1.374580910E-02  2.741231740E-02
  1.529999868E-02  2.646747792E-02
  1.683181876E-02  2.543174424E-02
  1.835454785E-02  2.431724272E-02
  1.986289266E-02  2.315074405E-02
  2.135935656E-02  2.195536134E-02
  2.284847775E-02  2.075979747E-02
  2.435582288E-02  1.957319090E-02
  2.587311410E-02  1.839427219E-02
  2.741170629E-02  1.721811959E-02
  2.897319915E-02  1.604263708E-02
  3.055771977E-02  1.486218977E-02
  3.216427747E-02  1.367367573E-02
  3.378383658E-02  1.247596575E-02
  3.540308813E-02  1.128316549E-02
  3.702185323E-02  1.011194798E-02
  3.863578103E-02  8.981296074E-03
  4.024123493E-02  7.911104267E-03
  4.184312159E-02  6.923828951E-03
  4.344724923E-02  6.037289804E-03
  4.506110363E-02  5.260398801E-03
  4.668931170E-02  4.598182591E-03
  4.833789860E-02  4.057789574E-03
  5.001001542E-02  3.645248851E-03
  5.170799158E-02  3.367749183E-03
  5.345517567E-02  3.232295045E-03
  5.530462677E-02  3.219067879E-03
  5.724583064E-02  3.219242077E-03
  5.923480059E-02  3.219255145E-03
  6.125911504E-02  3.219252232E-03
  6.331779241E-02  3.219251917E-03
  6.541204267E-02  3.219251963E-03
  6.753510728E-02  3.219251970E-03
  6.968927107E-02  3.219251970E-03
  7.187861413E-02  3.219251969E-03
  7.410079895E-02  3.219251969E-03
  7.635579971E-02  3.219251969E-03
  7.864172497E-02  3.219251969E-03
  8.095979970E-02  3.219251969E-03
  8.331425448E-02  3.219251969E-03
  8.570445661E-02  3.219251969E-03
  8.812921412E-02  3.219251969E-03
  9.058700130E-02  3.219251969E-03
  9.308583082E-02  3.219251969E-03
  9.561845068E-02  3.219251969E-03
  9.818688992E-02  3.219251969E-03
  1.007908097E-01  3.219251969E-03
  1.034308660E-01  3.219251969E-03
  1.061109644E-01  3.219251969E-03
  1.088260383E-01  3.219251969E-03
  1.115883022E-01  3.219251969E-03
  1.143879094E-01  3.219251969E-03
  1.172255596E-01  3.219251969E-03
  1.201075141E-01  3.219251969E-03
  1.230304639E-01  3.219251969E-03
  1.259891206E-01  3.219251969E-03
  1.289570517E-01  3.219251969E-03
  1.318801203E-01  3.219251969E-03
  1.347602909E-01  3.219251969E-03
  1.375976871E-01  3.219251969E-03
  1.403994300E-01  3.219251969E-03
  1.431580848E-01  3.219251969E-03
  1.458800921E-01  3.219251969E-03
  1.485570016E-01  3.219251969E-03
  1.511963083E-01  3.219251969E-03
  1.538029919E-01  3.219251969E-03
  1.563715268E-01  3.219251969E-03
  1.589078338E-01  3.219251969E-03
  1.613994460E-01  3.219251969E-03
  1.638558728E-01  3.219251969E-03
  1.662782037E-01  3.219251969E-03
  1.686653064E-01  3.219251969E-03
  1.710248811E-01  3.219251969E-03
  1.733461530E-01  3.219251969E-03
  1.756352467E-01  3.219251969E-03
  1.778900789E-01  3.219251969E-03
  1.801123158E-01  3.219251969E-03
  1.823003078E-01  3.219251970E-03
  1.844580111E-01  3.219251970E-03
  1.865833466E-01  3.219251963E-03
  1.886754303E-01  3.219251917E-03
  1.907366851E-01  3.219252231E-03
  1.927631133E-01  3.219255138E-03
  1.947523867E-01  3.219242100E-03
  1.966918416E-01  3.219068325E-03
  1.985400633E-01  3.232292869E-03
  2.002865192E-01  3.367763840E-03
  2.019854327E-01  3.645268088E-03
  2.036554721E-01  4.057818824E-03
  2.053055923E-01  4.598222419E-03
  2.069348558E-01  5.260451371E-03
  2.085514780E-01  6.037335072E-03
  2.101546965E-01  6.923885392E-03
  2.117555691E-01  7.911180837E-03
  2.133621147E-01  8.981369245E-03
  2.149752167E-01  1.011202844E-02
  2.165947576E-01  1.128325067E-02
  2.182155730E-01  1.247605437E-02
  2.198352274E-01  1.367377348E-02
  2.214408911E-01  1.486229048E-02
  2.230244459E-01  1.604272964E-02
  2.245817904E-01  1.721822216E-02
  2.261221222E-01  1.839436709E-02
  2.276426450E-01  1.957328591E-02
  2.291437494E-01  2.075989459E-02
  2.306353611E-01  2.195545775E-02
  2.321323570E-01  2.315083863E-02
  2.336412886E-01  2.431741722E-02
  2.351628416E-01  2.543183067E-02
  2.366953824E-01  2.646758939E-02
  2.382552262E-01  2.741233590E-02
  2.398377117E-01  2.824259097E-02
  2.414430148E-01  2.893021238E-02
  2.430560023E-01  2.944834501E-02
  2.446435399E-01  2.979931083E-02
  2.461946523E-01  3.001443695E-02
  2.476994583E-01  3.012632489E-02
  2.491694483E-01  3.015865307E-02
  2.505964120E-01  3.015868397E-02
  2.520000041E-01  3.015879334E-02
 -1.047740006E-09  3.076185582E-02
  1.418679409E-03  3.076174764E-02
  2.859257139E-03  3.076171708E-02
  4.353042261E-03  3.072974531E-02
  5.895236938E-03  3.061908980E-02
  7.485448086E-03  3.040625018E-02
  9.119545514E-03  3.005921658E-02
  1.078184214E-02  2.954667282E-02
  1.243833613E-02  2.886670674E-02
  1.406862802E-02  2.804558157E-02
  1.566493179E-02  2.711113204E-02
  1.723209812E-02  2.608678782E-02
  1.878600134E-02  2.498454194E-02
  2.031613592E-02  2.383087070E-02
  2.183123525E-02  2.264863304E-02
  2.333159541E-02  2.146621621E-02
  2.484486617E-02  2.029265819E-02
  2.636732284E-02  1.912670348E-02
  2.791006596E-02  1.796348447E-02
  2.947282016E-02  1.680092818E-02
  3.105986064E-02  1.563346169E-02
  3.266412713E-02  1.445801716E-02
  3.427929566E-02  1.327347782E-02
  3.589052305E-02  1.209379421E-02
  3.749659685E-02  1.093545602E-02
  3.908944709E-02  9.817237355E-03
  4.067005501E-02  8.758813935E-03
  4.224029430E-02  7.782395212E-03
  4.380751443E-02  6.905604912E-03
  4.538070394E-02  6.137257007E-03
  4.696709567E-02  5.482322871E-03
  4.857090394E-02  4.947872298E-03
  5.019789572E-02  4.539868087E-03
  5.185464086E-02  4.265419950E-03
  5.356511978E-02  4.131455336E-03
  5.538706780E-02  4.118373623E-03
  5.730816595E-02  4.118545905E-03
  5.928302499E-02  4.118558830E-03
  6.129957862E-02  4.118555949E-03
  6.335286172E-02  4.118555638E-03
  6.544040146E-02  4.118555683E-03
  6.755864194E-02  4.118555690E-03
  6.970968716E-02  4.118555689E-03
  7.189565823E-02  4.118555689E-03
  7.411542967E-02  4.118555689E-03
  7.636828278E-02  4.118555689E-03
  7.865255021E-02  4.118555689E-03
  8.097022444E-02  4.118555689E-03
  8.332283869E-02  4.118555689E-03
  8.571162074E-02  4.118555689E-03
  8.813456143E-02  4.118555689E-03
  9.059194450E-02  4.118555689E-03
  9.309000386E-02  4.118555689E-03
  9.562217597E-02  4.118555689E-03
  9.819028037E-02  4.118555689E-03
  1.007944608E-01  4.118555689E-03
  1.034345553E-01  4.118555689E-03
  1.061119375E-01  4.118555689E-03
  1.088266344E-01  4.118555689E-03
  1.115898174E-01  4.118555689E-03
  1.143885143E-01  4.118555689E-03
  1.172255679E-01  4.118555689E-03
  1.201062890E-01  4.118555689E-03
  1.230285590E-01  4.118555689E-03
  1.259882480E-01  4.118555689E-03
  1.289558022E-01  4.118555689E-03
  1.318779233E-01  4.118555689E-03
  1.347580166E-01  4.118555689E-03
  1.375950578E-01  4.118555689E-03
  1.403965338E-01  4.118555689E-03
  1.431537670E-01  4.118555689E-03
  1.458750041E-01  4.118555689E-03
  1.485520261E-01  4.118555689E-03
  1.511904209E-01  4.118555689E-03
  1.537973811E-01  4.118555689E-03
  1.563637339E-01  4.118555689E-03
  1.588994781E-01  4.118555689E-03
  1.613913962E-01  4.118555689E-03
  1.638467388E-01  4.118555689E-03
  1.662679616E-01  4.118555689E-03
  1.686546906E-01  4.118555689E-03
  1.710123462E-01  4.118555689E-03
  1.733322952E-01  4.118555689E-03
  1.756191922E-01  4.118555689E-03
  1.778726220E-01  4.118555689E-03
  1.800921939E-01  4.118555689E-03
  1.822779676E-01  4.118555689E-03
  1.844323455E-01  4.118555690E-03
  1.865546986E-01  4.118555683E-03
  1.886410240E-01  4.118555638E-03
  1.906958754E-01  4.118555948E-03
  1.927121646E-01  4.118558823E-03
  1.946884929E-01  4.118545928E-03
  1.966083359E-01  4.118374065E-03
  1.984280129E-01  4.131453184E-03
  2.001381838E-01  4.265434446E-03
  2.017950700E-01  4.539887112E-03
  2.034214619E-01  4.947901225E-03
  2.050264451E-01  5.482362261E-03
  2.066135332E-01  6.137308999E-03
  2.081896515E-01  6.905649682E-03
  2.097561300E-01  7.782451032E-03
  2.113245488E-01  8.758889663E-03
  2.129053391E-01  9.817309722E-03
  2.144982196E-01  1.093553560E-02
  2.161037699E-01  1.209387846E-02
  2.177182025E-01  1.327356547E-02
  2.193330253E-01  1.445811383E-02
  2.209383371E-01  1.563356128E-02
  2.225229112E-01  1.680101972E-02
  2.240834079E-01  1.796358591E-02
  2.256267545E-01  1.912679733E-02
  2.271519858E-01  2.029275215E-02
  2.286608804E-01  2.146631227E-02
  2.301636480E-01  2.264872839E-02
  2.316768483E-01  2.383096424E-02
  2.332105000E-01  2.498471452E-02
  2.347610033E-01  2.608687330E-02
  2.363315161E-01  2.711124228E-02
  2.379312632E-01  2.804559987E-02
  2.395634269E-01  2.886672502E-02
  2.412179798E-01  2.954678498E-02
  2.428814235E-01  3.005921996E-02
  2.445165498E-01  3.040632637E-02
  2.461065807E-01  3.061908686E-02
  2.476436327E-01  3.072974441E-02
  2.491381372E-01  3.076171710E-02
  2.505826763E-01  3.076174766E-02
  2.520000041E-01  3.076185582E-02
 -1.047740006E-09  3.139140271E-02
  1.434936808E-03  3.139129578E-02
  2.894876624E-03  3.139126557E-02
  4.413829738E-03  3.135966491E-02
  5.988165675E-03  3.125029378E-02
  7.617174397E-03  3.103992461E-02
  9.295766520E-03  3.069691906E-02
  1.100664985E-02  3.019032444E-02
  1.271124332E-02  2.951825078E-02
  1.438731574E-02  2.870665649E-02
  1.602509057E-02  2.778305320E-02
  1.762790122E-02  2.677059863E-02
  1.920995687E-02  2.568114661E-02
  2.076535383E-02  2.454086614E-02
  2.229875185E-02  2.337235081E-02
  2.381313782E-02  2.220365840E-02
  2.533379352E-02  2.104372197E-02
  2.686196816E-02  1.989130060E-02
  2.840844743E-02  1.874158318E-02
  2.997438028E-02  1.759252077E-02
  3.156178176E-02  1.643860517E-02
  3.316370708E-02  1.527680413E-02
  3.477454639E-02  1.410601384E-02
  3.637774325E-02  1.294002292E-02
  3.796938588E-02  1.179512966E-02
  3.954235425E-02  1.068989026E-02
  4.109881497E-02  9.643752052E-03
  4.263839322E-02  8.678666707E-03
  4.417125720E-02  7.812053388E-03
  4.570652233E-02  7.052623765E-03
  4.725194237E-02  6.405291507E-03
  4.881367946E-02  5.877044348E-03
  5.039837704E-02  5.473775877E-03
  5.201611044E-02  5.202513284E-03
  5.369189851E-02  5.070103609E-03
  5.548603051E-02  5.057173737E-03
  5.738592550E-02  5.057344019E-03
  5.934546901E-02  5.057356794E-03
  6.135143709E-02  5.057353946E-03
  6.339672736E-02  5.057353639E-03
  6.547686710E-02  5.057353684E-03
  6.758885530E-02  5.057353690E-03
  6.973672632E-02  5.057353690E-03
  7.191811197E-02  5.057353690E-03
  7.413436721E-02  5.057353690E-03
  7.638402951E-02  5.057353690E-03
  7.866625367E-02  5.057353690E-03
  8.098408374E-02  5.057353690E-03
  8.333427361E-02  5.057353690E-03
  8.572110901E-02  5.057353690E-03
  8.814222182E-02  5.057353690E-03
  9.059914804E-02  5.057353690E-03
  9.309514987E-02  5.057353690E-03
  9.562697693E-02  5.057353690E-03
  9.819506373E-02  5.057353690E-03
  1.007989241E-01  5.057353690E-03
  1.034377503E-01  5.057353690E-03
  1.061147502E-01  5.057353690E-03