# GRID_PARAMS_SHA256=66066c64228084eb7cb168ddeb512616b9aa1e5c7ff5b52ce7dafb5fc699a683
# GRID_PARAMS_JSON={"alpha":0.5,"boundary_condition":"fixed_resampled_boundaries","gamma":2.3,"generator":"periodic_hill_steger_sorenson","hill_shape":{"ly":9.0,"profile":"Mellen-Frohlich-Rodi periodic hill polynomial","reference_height":1.0,"scale":1.9285714285714286},"interpolation":{"boundary":"scipy_cubic","pq":"scipy_rect_bivariate_spline"},"ly":9.0,"lz":3.036,"mode":"adaptive_poisson","ni":257,"nj":193,"poisson":{"control_functions":"reverse_computed_PQ","max_iter":100000,"omega":1.0,"print_every":2000,"require_converged":true,"tol":1e-12},"reference_grid":"3.fine grid.dat","schema":1,"vertical_redistribution":"physical_z_vinokur_tanh"}
TITLE     = "Periodic hill 257x193"
VARIABLES = "x corner"
"y corner"
ZONE T="I257_J193_g2.30_a0.5"
 I=257, J=193, K=1,F=POINT
DT=(SINGLE SINGLE )
 -1.164150026E-10  2.800000086E-02
  6.890608665E-04  2.800006690E-02
  1.378127721E-03  2.799988716E-02
  2.067182264E-03  2.800021773E-02
  2.756257932E-03  2.799985505E-02
  3.445354214E-03  2.799261803E-02
  4.134577991E-03  2.796625525E-02
  4.823829301E-03  2.791896704E-02
  5.512844455E-03  2.784996506E-02
  6.201916404E-03  2.775383044E-02
  6.891920540E-03  2.762628746E-02
  7.581750038E-03  2.746352245E-02
  8.270541207E-03  2.726158259E-02
  8.958373407E-03  2.701632717E-02
  9.649749933E-03  2.672293965E-02
  1.033949938E-02  2.638561159E-02
  1.102755271E-02  2.600834908E-02
  1.171425452E-02  2.559486648E-02
  1.240517434E-02  2.514541149E-02
  1.309479747E-02  2.466693303E-02
  1.378316558E-02  2.416337895E-02
  1.447152093E-02  2.363764118E-02
  1.516748195E-02  2.308687420E-02
  1.586861092E-02  2.251569465E-02
  1.657355398E-02  2.192850097E-02
  1.728287244E-02  2.132804590E-02
  1.799814533E-02  2.071608376E-02
  1.871929002E-02  2.009635203E-02
  1.944479935E-02  1.947364550E-02
  2.017552048E-02  1.885107219E-02
  2.091177450E-02  1.823101895E-02
  2.165376370E-02  1.761315397E-02
  2.240094494E-02  1.699770230E-02
  2.315331005E-02  1.638425992E-02
  2.391081267E-02  1.577237613E-02
  2.467440674E-02  1.516091549E-02
  2.544349941E-02  1.454992497E-02
  2.621785875E-02  1.393915063E-02
  2.699739671E-02  1.332817026E-02
  2.778304519E-02  1.271570045E-02
  2.857472819E-02  1.210125533E-02
  2.937168878E-02  1.148481703E-02
  3.017380341E-02  1.086595611E-02
  3.098195514E-02  1.024423710E-02
  3.179656565E-02  9.621098976E-03
  3.261653685E-02  8.999492006E-03
  3.344223715E-02  8.381344819E-03
  3.427406601E-02  7.768674959E-03
  3.511187224E-02  7.164023006E-03
  3.595550922E-02  6.569972294E-03
  3.680541982E-02  5.988863644E-03
  3.766202597E-02  5.423166314E-03
  3.852393270E-02  4.876544355E-03
  3.939188053E-02  4.351422172E-03
  4.026669839E-02  3.850405516E-03
  4.114855514E-02  3.375659354E-03
  4.203602159E-02  2.928968267E-03
  4.292933220E-02  2.510821706E-03
  4.382970006E-02  2.121495399E-03
  4.473701803E-02  1.761936228E-03
  4.565065053E-02  1.433211429E-03
  4.657024899E-02  1.136257070E-03
  4.749688934E-02  8.715461536E-04
  4.843036153E-02  6.400644552E-04
  4.937040061E-02  4.427660024E-04
  5.031728375E-02  2.804773392E-04
  5.127119491E-02  1.543427204E-04
  5.223180312E-02  6.448060184E-05
  5.319863796E-02  1.355650831E-05
  5.417342610E-02  3.715585596E-07
  5.515540482E-02 -1.913368042E-07
  5.614371053E-02  6.464010156E-08
  5.713847466E-02 -1.028210947E-08
  5.814098517E-02 -3.518758033E-09
  5.915169772E-02  3.301058382E-09
  6.016896618E-02 -1.288856183E-09
  6.119284310E-02  2.729736732E-10
  6.222406425E-02  2.815019051E-11
  6.326433819E-02 -5.414312922E-11
  6.431145488E-02  2.473829475E-11
  6.536540016E-02 -6.383938517E-12
  6.642614643E-02  1.721418147E-13
  6.749672186E-02  8.301380416E-13
  6.857451331E-02 -4.576772988E-13
  6.965934951E-02  1.385939974E-13
  7.075126190E-02 -1.542863060E-14
  7.185238414E-02 -1.148213469E-14
  7.296172867E-02  8.149730890E-15
  7.407832239E-02 -2.853620118E-15
  7.520222524E-02  4.926614672E-16
  7.633481267E-02  1.318389842E-16
  7.747667597E-02 -1.370431546E-16
  7.862600079E-02  5.551115123E-17
  7.978285523E-02 -1.561251128E-17
  8.094775211E-02  1.734723476E-18
  8.212307770E-02  3.469446952E-18
  8.330610022E-02  1.734723476E-18
  8.449685294E-02  0.000000000E+00
  8.569536591E-02 -1.734723476E-18
  8.690474532E-02  1.734723476E-18
  8.812245214E-02  0.000000000E+00
  8.934808732E-02 -1.734723476E-18
  9.058170906E-02  0.000000000E+00
  9.182554274E-02  0.000000000E+00
  9.307893645E-02  1.734723476E-18
  9.434053768E-02  0.000000000E+00
  9.561037575E-02 -1.734723476E-18
  9.688966198E-02  0.000000000E+00
  9.817980742E-02  0.000000000E+00
  9.947839135E-02  1.734723476E-18
  1.007854447E-01  0.000000000E+00
  1.021012502E-01 -1.734723476E-18
  1.034291983E-01  0.000000000E+00
  1.047658088E-01  0.000000000E+00
  1.061111654E-01  0.000000000E+00
  1.074653358E-01  0.000000000E+00
  1.088313624E-01  0.000000000E+00
  1.102071623E-01  0.000000000E+00
  1.115919740E-01  0.000000000E+00
  1.129858256E-01  0.000000000E+00
  1.143908985E-01  0.000000000E+00
  1.158069922E-01  0.000000000E+00
  1.172323464E-01  0.000000000E+00
  1.186670149E-01  0.000000000E+00
  1.201121322E-01  0.000000000E+00
  1.215697649E-01  0.000000000E+00
  1.230369478E-01  0.000000000E+00
  1.245137179E-01  0.000000000E+00
  1.260001063E-01  0.000000000E+00
  1.274864091E-01  0.000000000E+00
  1.289631492E-01  0.000000000E+00
  1.304303308E-01  0.000000000E+00
  1.318879687E-01  0.000000000E+00
  1.333330860E-01  0.000000000E+00
  1.347677545E-01  0.000000000E+00
  1.361931435E-01  0.000000000E+00
  1.376092881E-01  0.000000000E+00
  1.390142925E-01  0.000000000E+00
  1.404081294E-01  0.000000000E+00
  1.417929386E-01  0.000000000E+00
  1.431687400E-01  0.000000000E+00
  1.445347723E-01  0.000000000E+00
  1.458889376E-01  0.000000000E+00
  1.472342885E-01  0.000000000E+00
  1.485708989E-01  0.000000000E+00
  1.498988581E-01  0.000000000E+00
  1.512146578E-01  0.000000000E+00
  1.525217136E-01  0.000000000E+00
  1.538202986E-01  0.000000000E+00
  1.551104383E-01  0.000000000E+00
  1.563897188E-01 -3.469446952E-18
  1.576595558E-01  0.000000000E+00
  1.589211598E-01  3.469446952E-18
  1.601745581E-01  0.000000000E+00
  1.614183918E-01  0.000000000E+00
  1.626520136E-01  0.000000000E+00
  1.638776520E-01  0.000000000E+00
  1.650953631E-01  0.000000000E+00
  1.663047425E-01  0.000000000E+00
  1.675032554E-01  0.000000000E+00
  1.686940044E-01  0.000000000E+00
  1.698770509E-01  0.000000000E+00
  1.710524499E-01  3.469446952E-18
  1.722172669E-01 -1.040834086E-17
  1.733740960E-01  5.551115123E-17
  1.745234199E-01 -1.353084311E-16
  1.756652883E-01  1.318389842E-16
  1.767978756E-01  4.926614672E-16
  1.779217738E-01 -2.844946501E-15
  1.790383677E-01  8.132383655E-15
  1.801477168E-01 -1.145611384E-14
  1.812488390E-01 -1.539046668E-14
  1.823407514E-01  1.382574610E-13
  1.834255876E-01 -4.565757494E-13
  1.845033774E-01  8.281292319E-13
  1.855739471E-01  1.717202769E-13
  1.866347715E-01 -6.369231531E-12
  1.876886930E-01  2.467651083E-11
  1.887357617E-01 -5.401172565E-11
  1.897760329E-01  2.808226568E-11
  1.908072541E-01  2.723157186E-10
  1.918311353E-01 -1.285760054E-09
  1.928484057E-01  3.293094214E-09
  1.938591263E-01 -3.510572347E-09
  1.948617110E-01 -1.025842455E-08
  1.958564276E-01  6.447826344E-08
  1.968446983E-01 -1.908730142E-07
  1.978266749E-01  3.708498919E-07
  1.988014630E-01  1.355424699E-05
  1.997682926E-01  6.448777512E-05
  2.007289019E-01  1.543579547E-04
  2.016828172E-01  2.804945799E-04
  2.026297003E-01  4.427859967E-04
  2.035697417E-01  6.400910485E-04
  2.045032657E-01  8.715765544E-04
  2.054299215E-01  1.136295489E-03
  2.063494541E-01  1.433252825E-03
  2.072630897E-01  1.761984924E-03
  2.081704061E-01  2.121550038E-03
  2.090708083E-01  2.510869254E-03
  2.099641623E-01  2.929015317E-03
  2.108515557E-01  3.375709800E-03
  2.117334041E-01  3.850464178E-03
  2.126082259E-01  4.351490145E-03
  2.134761735E-01  4.876623939E-03
  2.143380753E-01  5.423237104E-03
  2.151946847E-01  5.988939696E-03
  2.160445925E-01  6.570056604E-03
  2.168882540E-01  7.164106639E-03
  2.177261284E-01  7.768764541E-03
  2.185579663E-01  8.381433352E-03
  2.193836664E-01  8.999576011E-03
  2.202035987E-01  9.621191087E-03
  2.210181409E-01  1.024434003E-02
  2.218263003E-01  1.086605771E-02
  2.226284202E-01  1.148491339E-02
  2.234253737E-01  1.210136000E-02
  2.242170718E-01  1.271580005E-02
  2.250027899E-01  1.332826646E-02
  2.257822698E-01  1.393924838E-02
  2.265565900E-01  1.455003157E-02
  2.273256891E-01  1.516101461E-02
  2.280892881E-01  1.577247476E-02
  2.288467895E-01  1.638435864E-02
  2.295991540E-01  1.699780105E-02
  2.303463348E-01  1.761325262E-02
  2.310883208E-01  1.823111989E-02
  2.318245789E-01  1.885117671E-02
  2.325553590E-01  1.947374571E-02
  2.332809152E-01  2.009644608E-02
  2.340020469E-01  2.071618206E-02
  2.347172459E-01  2.132814216E-02
  2.354265356E-01  2.192868234E-02
  2.361315291E-01  2.251585946E-02
  2.368327104E-01  2.308696403E-02
  2.375285907E-01  2.363773997E-02
  2.382169268E-01  2.416349480E-02
  2.389053139E-01  2.466697651E-02
  2.395949318E-01  2.514543071E-02
  2.402858484E-01  2.559496672E-02
  2.409725546E-01  2.600836829E-02
  2.416606114E-01  2.638565188E-02
  2.423503468E-01  2.672305752E-02
  2.430417315E-01  2.701642064E-02
  2.437295686E-01  2.726158615E-02
  2.444183552E-01  2.746358617E-02
  2.451081814E-01  2.762636753E-02
  2.457981912E-01  2.775382339E-02
  2.464872627E-01  2.784996197E-02
  2.471762767E-01  2.791896959E-02
  2.478655289E-01  2.796625431E-02
  2.485547528E-01  2.799261822E-02
  2.492438495E-01  2.799985507E-02
  2.499329149E-01  2.800021768E-02
  2.506219652E-01  2.799988718E-02
  2.513110323E-01  2.800006689E-02
  2.520000935E-01  2.800000086E-02
 -1.082417965E-09  2.813966858E-02
  6.890990744E-04  2.813973446E-02
  1.378262149E-03  2.813955516E-02
  2.067716757E-03  2.813988492E-02
  2.757977121E-03  2.813952312E-02
  3.449527245E-03  2.813230384E-02
  4.142287730E-03  2.810600566E-02
  4.835826564E-03  2.805883332E-02
  5.529941779E-03  2.799000041E-02
  6.225015558E-03  2.789410135E-02
  6.921653702E-03  2.776687089E-02
  7.619024421E-03  2.760450470E-02
  8.316422881E-03  2.740305967E-02
  9.013899255E-03  2.715840519E-02
  9.713928908E-03  2.686573656E-02
  1.041261936E-02  2.652923507E-02
  1.110948723E-02  2.615289697E-02
  1.180503010E-02  2.574042753E-02
  1.250257676E-02  2.529207384E-02
  1.319881182E-02  2.481476781E-02
  1.389339876E-02  2.431244759E-02
  1.458820606E-02  2.378799804E-02
  1.528866359E-02  2.323858061E-02
  1.599366578E-02  2.266880062E-02
  1.670230930E-02  2.208304576E-02
  1.741497388E-02  2.148406199E-02
  1.813249470E-02  2.087359934E-02
  1.885488593E-02  2.025538615E-02
  1.958125045E-02  1.963420544E-02
  2.031218209E-02  1.901315764E-02
  2.104841077E-02  1.839462371E-02
  2.179015529E-02  1.777827269E-02
  2.253714418E-02  1.716432907E-02
  2.328941865E-02  1.655238982E-02
  2.404708407E-02  1.594200533E-02
  2.481057968E-02  1.533204297E-02
  2.557974785E-02  1.472254956E-02
  2.635440735E-02  1.411327180E-02
  2.713449356E-02  1.350378853E-02
  2.792054445E-02  1.289281946E-02
  2.871268524E-02  1.227987992E-02
  2.951037040E-02  1.166495209E-02
  3.031335174E-02  1.104760757E-02
  3.112201385E-02  1.042741197E-02
  3.193650819E-02  9.805800721E-03
  3.275618550E-02  9.185716881E-03
  3.358111615E-02  8.569084347E-03
  3.441148901E-02  7.957915718E-03
  3.524725518E-02  7.354745351E-03
  3.608838350E-02  6.762150248E-03
  3.693510740E-02  6.182465494E-03
  3.778758923E-02  5.618154299E-03
  3.864508640E-02  5.072871733E-03
  3.950798569E-02  4.549036263E-03
  4.037699811E-02  4.049247253E-03
  4.125243602E-02  3.575664367E-03
  4.213354680E-02  3.130067812E-03
  4.302039401E-02  2.712945840E-03
  4.391390817E-02  2.324573503E-03
  4.481412226E-02  1.965895365E-03
  4.572053469E-02  1.637976044E-03
  4.663291731E-02  1.341749314E-03
  4.755203779E-02  1.077687022E-03
  4.847777101E-02  8.467725262E-04
  4.940996063E-02  6.499575160E-04
  5.034895831E-02  4.880665105E-04
  5.129482207E-02  3.622409607E-04
  5.224734382E-02  2.725990323E-04
  5.320716854E-02  2.217997186E-04
  5.417691339E-02  2.086470761E-04
  5.515641530E-02  2.080855600E-04
  5.614407778E-02  2.083409097E-04
  5.713885311E-02  2.082661710E-04
  5.814136737E-02  2.082729178E-04
  5.915188337E-02  2.082797209E-04
  6.016913944E-02  2.082751422E-04
  6.119313771E-02  2.082767003E-04
  6.222454164E-02  2.082764560E-04
  6.326456299E-02  2.082763739E-04
  6.431161299E-02  2.082764526E-04
  6.536560004E-02  2.082764216E-04
  6.642664404E-02  2.082764281E-04
  6.749695412E-02  2.082764288E-04
  6.857463724E-02  2.082764275E-04
  6.965949703E-02  2.082764281E-04
  7.075163779E-02  2.082764279E-04
  7.185260162E-02  2.082764279E-04
  7.296178641E-02  2.082764280E-04
  7.407837298E-02  2.082764279E-04
  7.520241844E-02  2.082764279E-04
  7.633506756E-02  2.082764279E-04
  7.747672098E-02  2.082764279E-04
  7.862600688E-02  2.082764279E-04
  7.978296306E-02  2.082764279E-04
  8.094809357E-02  2.082764279E-04
  8.212314138E-02  2.082764279E-04
  8.330607843E-02  2.082764279E-04
  8.449686468E-02  2.082764279E-04
  8.569567273E-02  2.082764279E-04
  8.690482823E-02  2.082764279E-04
  8.812239935E-02  2.082764279E-04
  8.934802781E-02  2.082764279E-04
  9.058187421E-02  2.082764279E-04
  9.182564670E-02  2.082764279E-04
  9.307885150E-02  2.082764279E-04
  9.434043923E-02  2.082764279E-04
  9.561043046E-02  2.082764279E-04
  9.688981660E-02  2.082764279E-04
  9.817972857E-02  2.082764279E-04
  9.947827478E-02  2.082764279E-04
  1.007854146E-01  2.082764279E-04
  1.021014967E-01  2.082764279E-04
  1.034290717E-01  2.082764279E-04
  1.047655895E-01  2.082764279E-04
  1.061110071E-01  2.082764279E-04
  1.074654363E-01  2.082764279E-04
  1.088312739E-01  2.082764279E-04
  1.102069497E-01  2.082764279E-04
  1.115917619E-01  2.082764279E-04
  1.129857902E-01  2.082764279E-04
  1.143908420E-01  2.082764279E-04
  1.158067539E-01  2.082764279E-04
  1.172320629E-01  2.082764279E-04
  1.186668132E-01  2.082764279E-04
  1.201120619E-01  2.082764279E-04
  1.215694593E-01  2.082764279E-04
  1.230365892E-01  2.082764279E-04
  1.245135559E-01  2.082764279E-04
  1.259998880E-01  2.082764279E-04
  1.274861835E-01  2.082764279E-04
  1.289631116E-01  2.082764279E-04
  1.304301933E-01  2.082764279E-04
  1.318875784E-01  2.082764279E-04
  1.333328404E-01  2.082764279E-04
  1.347676290E-01  2.082764279E-04
  1.361930129E-01  2.082764279E-04
  1.376089762E-01  2.082764279E-04
  1.390139461E-01  2.082764279E-04
  1.404079786E-01  2.082764279E-04
  1.417927665E-01  2.082764279E-04
  1.431684172E-01  2.082764279E-04
  1.445343056E-01  2.082764279E-04
  1.458887123E-01  2.082764279E-04
  1.472340739E-01  2.082764279E-04
  1.485706091E-01  2.082764279E-04
  1.498982654E-01  2.082764279E-04
  1.512143396E-01  2.082764279E-04
  1.525214703E-01  2.082764279E-04
  1.538200172E-01  2.082764279E-04
  1.551099217E-01  2.082764279E-04
  1.563893108E-01  2.082764279E-04
  1.576593001E-01  2.082764279E-04
  1.589208878E-01  2.082764279E-04
  1.601740779E-01  2.082764279E-04
  1.614178032E-01  2.082764279E-04
  1.626516338E-01  2.082764279E-04
  1.638772927E-01  2.082764279E-04
  1.650948987E-01  2.082764279E-04
  1.663040521E-01  2.082764279E-04
  1.675028437E-01  2.082764279E-04
  1.686936258E-01  2.082764279E-04
  1.698766080E-01  2.082764279E-04
  1.710517288E-01  2.082764279E-04
  1.722167784E-01  2.082764279E-04
  1.733737258E-01  2.082764279E-04
  1.745230205E-01  2.082764279E-04
  1.756646612E-01  2.082764279E-04
  1.767973147E-01  2.082764279E-04
  1.779213340E-01  2.082764279E-04
  1.790378893E-01  2.082764280E-04
  1.801470927E-01  2.082764279E-04
  1.812481143E-01  2.082764279E-04
  1.823402522E-01  2.082764281E-04
  1.834251028E-01  2.082764275E-04
  1.845027935E-01  2.082764288E-04
  1.855731124E-01  2.082764281E-04
  1.866342338E-01  2.082764216E-04
  1.876881982E-01  2.082764526E-04
  1.887351723E-01  2.082763741E-04
  1.897751505E-01  2.082764560E-04
  1.908065527E-01  2.082766996E-04
  1.918305905E-01  2.082751453E-04
  1.928478530E-01  2.082797130E-04
  1.938583354E-01  2.082729260E-04
  1.948608836E-01  2.082661947E-04
  1.958556724E-01  2.083407482E-04
  1.968433313E-01  2.080860226E-04
  1.978228217E-01  2.086463691E-04
  1.987925735E-01  2.217974628E-04
  1.997523798E-01  2.726061880E-04
  2.007049186E-01  3.622561576E-04
  2.016507747E-01  4.880837089E-04
  2.025897075E-01  6.499774613E-04
  2.035219271E-01  8.467990544E-04
  2.044477274E-01  1.077717349E-03
  2.053668596E-01  1.341787640E-03
  2.062791953E-01  1.638017338E-03
  2.071855923E-01  1.965943941E-03
  2.080857871E-01  2.324628009E-03
  2.089793459E-01  2.712993272E-03
  2.098662398E-01  3.130114747E-03
  2.107472595E-01  3.575714690E-03
  2.116227022E-01  4.049305772E-03
  2.124917263E-01  4.549104069E-03
  2.133546097E-01  5.072951122E-03
  2.142121139E-01  5.618224915E-03
  2.150645845E-01  6.182541360E-03
  2.159112842E-01  6.762234351E-03
  2.167524678E-01  7.354828778E-03
  2.175883534E-01  7.958005081E-03
  2.184187187E-01  8.569172663E-03
  2.192436541E-01  9.185800680E-03
  2.200633043E-01  9.805892605E-03
  2.208777379E-01  1.042751464E-02
  2.216864506E-01  1.104770892E-02
  2.224894501E-01  1.166504821E-02
  2.232870946E-01  1.227998433E-02
  2.240792729E-01  1.289291881E-02
  2.248654756E-01  1.350388449E-02
  2.256454831E-01  1.411336931E-02
  2.264200807E-01  1.472265590E-02
  2.271892991E-01  1.533214184E-02
  2.279528280E-01  1.594210372E-02
  2.287105013E-01  1.655248830E-02
  2.294627865E-01  1.716442758E-02
  2.302097803E-01  1.777837111E-02
  2.309515074E-01  1.839472441E-02
  2.316877519E-01  1.901326190E-02
  2.324188126E-01  1.963430540E-02
  2.331452218E-01  2.025547996E-02
  2.338675199E-01  2.087369740E-02
  2.345850139E-01  2.148415801E-02
  2.352977048E-01  2.208322668E-02
  2.360064520E-01  2.266896503E-02
  2.367115040E-01  2.323867022E-02
  2.374118373E-01  2.378809659E-02
  2.381066466E-01  2.431256315E-02
  2.388012870E-01  2.481481118E-02
  2.394975057E-01  2.529209302E-02
  2.401950254E-01  2.574052752E-02
  2.408906008E-01  2.615291613E-02
  2.415874558E-01  2.652927525E-02
  2.422861334E-01  2.686585415E-02
  2.429861938E-01  2.715849843E-02
  2.436836514E-01  2.740306322E-02
  2.443810278E-01  2.760456828E-02
  2.450784116E-01  2.776695077E-02
  2.457750946E-01  2.789409432E-02
  2.464701965E-01  2.798999733E-02
  2.471642603E-01  2.805883586E-02
  2.478577792E-01  2.810600472E-02
  2.485505785E-01  2.813230403E-02
  2.492421411E-01  2.813952315E-02
  2.499323689E-01  2.813988487E-02
  2.506218329E-01  2.813955518E-02
  2.513110127E-01  2.813973445E-02
  2.520000008E-01  2.813966858E-02
 -1.045162475E-09  2.828208594E-02
  6.892644406E-04  2.828215166E-02
  1.378684001E-03  2.828197280E-02
  2.068713558E-03  2.828230173E-02
  2.760307389E-03  2.828194084E-02
  3.454369669E-03  2.827473965E-02
  4.150668662E-03  2.824850733E-02
  4.848521189E-03  2.820145314E-02
  5.547760212E-03  2.813279264E-02
  6.248811401E-03  2.803713378E-02
  6.952100752E-03  2.791022199E-02
  7.656986623E-03  2.774826248E-02
  8.362904993E-03  2.754732200E-02
  9.069782435E-03  2.730328031E-02
  9.778457130E-03  2.701134472E-02
  1.048595251E-02  2.667568606E-02
  1.119155302E-02  2.630029057E-02
  1.189567399E-02  2.588885424E-02
  1.260009160E-02  2.544162353E-02
  1.330293410E-02  2.496551300E-02
  1.400377730E-02  2.446445093E-02
  1.470481690E-02  2.394131497E-02
  1.540988990E-02  2.339327366E-02
  1.611891424E-02  2.282492079E-02
  1.683136618E-02  2.224063306E-02
  1.754739012E-02  2.164314956E-02
  1.826723460E-02  2.103421593E-02
  1.899101293E-02  2.041755117E-02
  1.971838889E-02  1.979792632E-02
  2.044978838E-02  1.917843405E-02
  2.118610588E-02  1.856144936E-02
  2.192764538E-02  1.794664211E-02
  2.267451392E-02  1.733423622E-02
  2.342675378E-02  1.672382969E-02
  2.418452794E-02  1.611497402E-02
  2.494806325E-02  1.550653942E-02
  2.571735004E-02  1.489857260E-02
  2.649224961E-02  1.429082090E-02
  2.727282664E-02  1.368286419E-02
  2.805938661E-02  1.307342540E-02
  2.885198388E-02  1.246202109E-02
  2.965025843E-02  1.184863346E-02
  3.045397093E-02  1.123283520E-02
  3.126310738E-02  1.061419299E-02
  3.207746312E-02  9.994138684E-03
  3.289672367E-02  9.375607960E-03
  3.372078188E-02  8.760519898E-03
  3.454967982E-02  8.150882056E-03
  3.538347012E-02  7.549222442E-03
  3.622198198E-02  6.958111604E-03
  3.706544867E-02  6.379878780E-03
  3.791396734E-02  5.816981007E-03
  3.876700057E-02  5.273064204E-03
  3.962483257E-02  4.750540778E-03
  4.048809527E-02  4.252003583E-03
  4.135719638E-02  3.779606875E-03
  4.223192765E-02  3.335126400E-03
  4.311236352E-02  2.919049188E-03
  4.399906969E-02  2.531649602E-03
  4.489213588E-02  2.173869840E-03
  4.579130910E-02  1.846771855E-03
  4.669645756E-02  1.551287081E-03
  4.760805559E-02  1.287886182E-03
  4.852612483E-02  1.057550055E-03
  4.945059745E-02  8.612280045E-04
  5.038167113E-02  6.997424854E-04
  5.131959532E-02  5.742320893E-04
  5.226432019E-02  4.848146858E-04
  5.321732689E-02  4.341426085E-04
  5.418211509E-02  4.210229093E-04
  5.515897632E-02  4.204627996E-04
  5.614572128E-02  4.207175097E-04
  5.714027327E-02  4.206429583E-04
  5.814261149E-02  4.206496882E-04
  5.915285306E-02  4.206564742E-04
  6.016999122E-02  4.206519070E-04
  6.119402120E-02  4.206534611E-04
  6.222552980E-02  4.206532175E-04
  6.326527279E-02  4.206531356E-04
  6.431224561E-02  4.206532141E-04
  6.536627845E-02  4.206531832E-04
  6.642745182E-02  4.206531897E-04
  6.749746727E-02  4.206531903E-04
  6.857506411E-02  4.206531891E-04
  6.965991446E-02  4.206531896E-04
  7.075216459E-02  4.206531895E-04
  7.185311264E-02  4.206531895E-04
  7.296212592E-02  4.206531895E-04
  7.407864808E-02  4.206531895E-04
  7.520284864E-02  4.206531895E-04
  7.633554686E-02  4.206531895E-04
  7.747695280E-02  4.206531895E-04
  7.862616876E-02  4.206531895E-04
  7.978321422E-02  4.206531895E-04
  8.094847789E-02  4.206531895E-04
  8.212330736E-02  4.206531895E-04
  8.330618469E-02  4.206531895E-04
  8.449699398E-02  4.206531895E-04
  8.569599244E-02  4.206531895E-04
  8.690497622E-02  4.206531895E-04
  8.812247654E-02  4.206531895E-04
  8.934810704E-02  4.206531895E-04
  9.058208492E-02  4.206531895E-04
  9.182581320E-02  4.206531895E-04
  9.307889163E-02  4.206531895E-04
  9.434044470E-02  4.206531895E-04
  9.561052052E-02  4.206531895E-04
  9.688998815E-02  4.206531895E-04
  9.817967730E-02  4.206531895E-04
  9.947817009E-02  4.206531895E-04
  1.007853936E-01  4.206531895E-04
  1.021016952E-01  4.206531895E-04
  1.034290261E-01  4.206531895E-04
  1.047654835E-01  4.206531895E-04
  1.061109415E-01  4.206531895E-04
  1.074655421E-01  4.206531895E-04
  1.088311693E-01  4.206531895E-04
  1.102067286E-01  4.206531895E-04
  1.115915724E-01  4.206531895E-04
  1.129857688E-01  4.206531895E-04
  1.143908004E-01  4.206531895E-04
  1.158065085E-01  4.206531895E-04
  1.172317785E-01  4.206531895E-04
  1.186666750E-01  4.206531895E-04
  1.201120758E-01  4.206531895E-04
  1.215692337E-01  4.206531895E-04
  1.230362881E-01  4.206531895E-04
  1.245134214E-01  4.206531895E-04
  1.259996689E-01  4.206531895E-04
  1.274858648E-01  4.206531895E-04
  1.289629950E-01  4.206531895E-04
  1.304300651E-01  4.206531895E-04
  1.318872122E-01  4.206531895E-04
  1.333325854E-01  4.206531895E-04
  1.347675130E-01  4.206531895E-04
  1.361928403E-01  4.206531895E-04
  1.376085656E-01  4.206531895E-04
  1.390135329E-01  4.206531895E-04
  1.404077208E-01  4.206531895E-04
  1.417925687E-01  4.206531895E-04
  1.431681228E-01  4.206531895E-04
  1.445337573E-01  4.206531895E-04
  1.458883806E-01  4.206531895E-04
  1.472338322E-01  4.206531895E-04
  1.485703284E-01  4.206531895E-04
  1.498977296E-01  4.206531895E-04
  1.512139421E-01  4.206531895E-04
  1.525211230E-01  4.206531895E-04
  1.538196491E-01  4.206531895E-04
  1.551093525E-01  4.206531895E-04
  1.563887913E-01  4.206531895E-04
  1.576588589E-01  4.206531895E-04
  1.589204334E-01  4.206531895E-04
  1.601735114E-01  4.206531895E-04
  1.614172035E-01  4.206531895E-04
  1.626512113E-01  4.206531895E-04
  1.638768657E-01  4.206531895E-04
  1.650943377E-01  4.206531895E-04
  1.663032785E-01  4.206531895E-04
  1.675022743E-01  4.206531895E-04
  1.686931464E-01  4.206531895E-04
  1.698760624E-01  4.206531895E-04
  1.710508791E-01  4.206531895E-04
  1.722161187E-01  4.206531895E-04
  1.733731382E-01  4.206531895E-04
  1.745223575E-01  4.206531895E-04
  1.756637884E-01  4.206531895E-04
  1.767964464E-01  4.206531895E-04
  1.779206398E-01  4.206531895E-04
  1.790372033E-01  4.206531895E-04
  1.801462396E-01  4.206531895E-04
  1.812471521E-01  4.206531895E-04
  1.823393804E-01  4.206531896E-04
  1.834242684E-01  4.206531891E-04
  1.845018741E-01  4.206531903E-04
  1.855718609E-01  4.206531897E-04
  1.866331600E-01  4.206531832E-04
  1.876871529E-01  4.206532141E-04
  1.887340309E-01  4.206531358E-04
  1.897737963E-01  4.206532175E-04
  1.908053099E-01  4.206534605E-04
  1.918293346E-01  4.206519101E-04
  1.928464571E-01  4.206564663E-04
  1.938567139E-01  4.206496963E-04
  1.948591350E-01  4.206429819E-04
  1.958536421E-01  4.207173487E-04
  1.968403385E-01  4.204632611E-04
  1.978172007E-01  4.210222041E-04
  1.987819822E-01  4.341403584E-04
  1.997349858E-01  4.848218236E-04
  2.006797534E-01  5.742472481E-04
  2.016176807E-01  6.997596407E-04
  2.025486865E-01  8.612478999E-04
  2.034731726E-01  1.057576516E-03
  2.043912977E-01  1.287916433E-03
  2.053028974E-01  1.551325311E-03
  2.062080004E-01  1.846813046E-03
  2.071071883E-01  2.173918295E-03
  2.080002405E-01  2.531703971E-03
  2.088869464E-01  2.919096501E-03
  2.097673716E-01  3.335173217E-03
  2.106420066E-01  3.779657071E-03
  2.115111322E-01  4.252061956E-03
  2.123744583E-01  4.750608414E-03
  2.132323224E-01  5.273143395E-03
  2.140853554E-01  5.817051447E-03
  2.149338294E-01  6.379954455E-03
  2.157773415E-01  6.958195497E-03
  2.166159355E-01  7.549305660E-03
  2.174497477E-01  8.150971195E-03
  2.182786847E-01  8.760607993E-03
  2.191027617E-01  9.375691550E-03
  2.199220069E-01  9.994230339E-03
  2.207363283E-01  1.061429541E-02
  2.215454531E-01  1.123293629E-02
  2.223492416E-01  1.184872934E-02
  2.231475445E-01  1.246212524E-02
  2.239401594E-01  1.307352451E-02
  2.247268317E-01  1.368295991E-02
  2.255074063E-01  1.429091817E-02
  2.262822606E-01  1.489867868E-02
  2.270515374E-01  1.550663804E-02
  2.278150747E-01  1.611507217E-02
  2.285728510E-01  1.672392792E-02
  2.293251594E-01  1.733433448E-02
  2.300720996E-01  1.794674027E-02
  2.308136535E-01  1.856154980E-02
  2.315500051E-01  1.917853805E-02
  2.322814802E-01  1.979802604E-02
  2.330088880E-01  2.041764475E-02
  2.337326328E-01  2.103431374E-02
  2.344524874E-01  2.164324533E-02
  2.351685163E-01  2.224081353E-02
  2.358810260E-01  2.282508479E-02
  2.365901032E-01  2.339336305E-02
  2.372951209E-01  2.394141327E-02
  2.379961208E-01  2.446456621E-02
  2.386970627E-01  2.496555627E-02
  2.393999871E-01  2.544164266E-02
  2.401043782E-01  2.588895397E-02
  2.408084915E-01  2.630030968E-02
  2.415140242E-01  2.667572614E-02
  2.422215440E-01  2.701146201E-02
  2.429302977E-01  2.730337332E-02
  2.436371318E-01  2.754732554E-02
  2.443430928E-01  2.774832589E-02
  2.450480075E-01  2.791030167E-02
  2.457512611E-01  2.803712676E-02
  2.464523387E-01  2.813278957E-02
  2.471515850E-01  2.820145568E-02
  2.478494097E-01  2.824850639E-02
  2.485456959E-01  2.827473983E-02
  2.492397713E-01  2.828194087E-02
  2.499313278E-01  2.828230169E-02
  2.506213723E-01  2.828197282E-02
  2.513108305E-01  2.828215164E-02
  2.520000043E-01  2.828208594E-02
 -1.047256028E-09  2.842729284E-02
  6.895632766E-04  2.842735839E-02
  1.379395681E-03  2.842718000E-02
  2.070176101E-03  2.842750809E-02
  2.763255616E-03  2.842714812E-02
  3.459883778E-03  2.841996536E-02
  4.159727949E-03  2.839380020E-02
  4.861916989E-03  2.834686648E-02
  5.566292731E-03  2.827838176E-02
  6.273300032E-03  2.818296780E-02
  6.983248878E-03  2.805638093E-02
  7.695629375E-03  2.789483606E-02
  8.409933602E-03  2.769441002E-02
  9.125910376E-03  2.745099311E-02
  9.843299486E-03  2.715980493E-02
  1.055959303E-02  2.682500561E-02
  1.127379833E-02  2.645057118E-02
  1.198626094E-02  2.604018820E-02
  1.269762976E-02  2.559410247E-02
  1.340720163E-02  2.511921086E-02
  1.411442494E-02  2.461943159E-02
  1.482150395E-02  2.409763494E-02
  1.553136639E-02  2.355099671E-02
  1.624454989E-02  2.298409891E-02
  1.696072542E-02  2.240130705E-02
  1.768004821E-02  2.180535320E-02
  1.840239144E-02  2.119797854E-02
  1.912774591E-02  2.058289254E-02
  1.985617726E-02  1.996485403E-02
  2.058810722E-02  1.934694775E-02
  2.132468086E-02  1.873154264E-02
  2.206620191E-02  1.811830940E-02
  2.281303079E-02  1.750747137E-02
  2.356533947E-02  1.689862757E-02
  2.432332821E-02  1.629133068E-02
  2.508691853E-02  1.568445376E-02
  2.585625950E-02  1.507804344E-02
  2.663142984E-02  1.447184767E-02
  2.741253575E-02  1.386544743E-02
  2.819951519E-02  1.325756890E-02
  2.899242924E-02  1.264772988E-02
  2.979130584E-02  1.203591263E-02
  3.059575711E-02  1.142169090E-02
  3.140517555E-02  1.080463252E-02
  3.221938819E-02  1.018616565E-02
  3.303817435E-02  9.569218465E-03
  3.386127307E-02  8.955705126E-03
  3.468865040E-02  8.347628054E-03
  3.552031112E-02  7.747508784E-03
  3.635630427E-02  7.157911285E-03
  3.719657050E-02  6.581158829E-03
  3.804099036E-02  6.019702164E-03
  3.888957497E-02  5.477177875E-03
  3.974237095E-02  4.955992192E-03
  4.059999144E-02  4.458731332E-03
  4.146293612E-02  3.987544034E-03
  4.233127813E-02  3.544201500E-03
  4.320520203E-02  3.129189513E-03
  4.408511451E-02  2.742781731E-03
  4.497113205E-02  2.385917943E-03