TITLE = "Sensitivity analysis"
VARIABLES = "j" "gamma" "dn_bot" "dn_top" "utau_crit_bot" "utau_crit_top" "margin_vs_raw_pct" "margin_vs_design_pct"
ZONE T="sensitivity", I=257, F=POINT
     0   2.852402 5.35857065e-03 5.35857065e-03 3.33244517e-02 3.33244517e-02    11.1524    11.1111
     1   2.852201 5.35926024e-03 5.35926024e-03 3.33201637e-02 3.33201637e-02    11.1394    11.1111
     2   2.851876 5.36040473e-03 5.36040473e-03 3.33130496e-02 3.33130496e-02    11.2532    11.1111
     3   2.851371 5.36212571e-03 5.36212571e-03 3.33023577e-02 3.33023577e-02    11.3077    11.1111
     4   2.850679 5.36455826e-03 5.36455826e-03 3.32872568e-02 3.32872568e-02    11.4467    11.1111
     5   2.849936 5.36781689e-03 5.36781689e-03 3.32670492e-02 3.32670492e-02    11.5176    11.1111
     6   2.849459 5.37195651e-03 5.37195651e-03 3.32414137e-02 3.32414137e-02    11.6255    11.1111
     7   2.849307 5.37693888e-03 5.37693888e-03 3.32106116e-02 3.32106116e-02    11.6547    11.1111
     8   2.849544 5.38261354e-03 5.38261354e-03 3.31755990e-02 3.31755990e-02    11.7146    11.1111
     9   2.850390 5.38871803e-03 5.38871803e-03 3.31380168e-02 3.31380168e-02    11.7092    11.1111
    10   2.852060 5.39489486e-03 5.39489486e-03 3.31000758e-02 3.31000758e-02    11.7262    11.1111
    11   2.854771 5.40072170e-03 5.40072170e-03 3.30643641e-02 3.30643641e-02    11.6942    11.1111
    12   2.858745 5.40575468e-03 5.40575468e-03 3.30335798e-02 3.30335798e-02    11.6872    11.1111
    13   2.864195 5.40958479e-03 5.40958479e-03 3.30101913e-02 3.30101913e-02    11.6497    11.1111
    14   2.871318 5.41190264e-03 5.41190264e-03 3.29960534e-02 3.29960534e-02    11.6311    11.1111
    15   2.880021 5.41255426e-03 5.41255426e-03 3.29920810e-02 3.29920810e-02    11.5898    11.1111
    16   2.890167 5.41156706e-03 5.41156706e-03 3.29980996e-02 3.29980996e-02    11.5855    11.1111
    17   2.901579 5.40913221e-03 5.40913221e-03 3.30129532e-02 3.30129532e-02    11.5699    11.1111
    18   2.914140 5.40555001e-03 5.40555001e-03 3.30348306e-02 3.30348306e-02    11.5756    11.1111
    19   2.927554 5.40116050e-03 5.40116050e-03 3.30616779e-02 3.30616779e-02    11.5618    11.1111
    20   2.941609 5.39628597e-03 5.39628597e-03 3.30915429e-02 3.30915429e-02    11.5759    11.1111
    21   2.956139 5.39119843e-03 5.39119843e-03 3.31227706e-02 3.31227706e-02    11.5687    11.1111
    22   2.971138 5.38611316e-03 5.38611316e-03 3.31540432e-02 3.31540432e-02    11.5727    11.1111
    23   2.986431 5.38119629e-03 5.38119629e-03 3.31843365e-02 3.31843365e-02    11.5400    11.1111
    24   3.001863 5.37657561e-03 5.37657561e-03 3.32128554e-02 3.32128554e-02    11.5326    11.1111
    25   3.017333 5.37234728e-03 5.37234728e-03 3.32389958e-02 3.32389958e-02    11.4878    11.1111
    26   3.032775 5.36857815e-03 5.36857815e-03 3.32623320e-02 3.32623320e-02    11.4668    11.1111
    27   3.048086 5.36530588e-03 5.36530588e-03 3.32826184e-02 3.32826184e-02    11.3979    11.1111
    28   3.063153 5.36254037e-03 5.36254037e-03 3.32997826e-02 3.32997826e-02    11.3709    11.1111
    29   3.077913 5.36026707e-03 5.36026707e-03 3.33139051e-02 3.33139051e-02    11.2971    11.1111
    30   3.092326 5.35845260e-03 5.35845260e-03 3.33251858e-02 3.33251858e-02    11.2838    11.1111
    31   3.106418 5.35705050e-03 5.35705050e-03 3.33339080e-02 3.33339080e-02    11.2098    11.1111
    32   3.120205 5.35600628e-03 5.35600628e-03 3.33404069e-02 3.33404069e-02    11.2157    11.1111
    33   3.133719 5.35526125e-03 5.35526125e-03 3.33450452e-02 3.33450452e-02    11.1548    11.1111
    34   3.146989 5.35475615e-03 5.35475615e-03 3.33481906e-02 3.33481906e-02    11.1622    11.1111
    35   3.160060 5.35443461e-03 5.35443461e-03 3.33501931e-02 3.33501931e-02    11.1211    11.1111
    36   3.172948 5.35424715e-03 5.35424715e-03 3.33513608e-02 3.33513608e-02    11.1300    11.1111
    37   3.185710 5.35401839e-03 5.35401839e-03 3.33527858e-02 3.33527858e-02    11.1111    11.1111
    38   3.198253 5.35412798e-03 5.35412798e-03 3.33521031e-02 3.33521031e-02    11.1240    11.1111
    39   3.210722 5.35415137e-03 5.35415137e-03 3.33519574e-02 3.33519574e-02    11.1152    11.1111
    40   3.223094 5.35421502e-03 5.35421502e-03 3.33515610e-02 3.33515610e-02    11.1292    11.1111
    41   3.235372 5.35431268e-03 5.35431268e-03 3.33509526e-02 3.33509526e-02    11.1260    11.1111
    42   3.247568 5.35443734e-03 5.35443734e-03 3.33501762e-02 3.33501762e-02    11.1396    11.1111
    43   3.259695 5.35457876e-03 5.35457876e-03 3.33492953e-02 3.33492953e-02    11.1356    11.1111
    44   3.271728 5.35472411e-03 5.35472411e-03 3.33483901e-02 3.33483901e-02    11.1365    11.1111
    45   3.283617 5.35486049e-03 5.35486049e-03 3.33475408e-02 3.33475408e-02    11.1273    11.1111
    46   3.295331 5.35497873e-03 5.35497873e-03 3.33468045e-02 3.33468045e-02    11.1266    11.1111
    47   3.306836 5.35507654e-03 5.35507654e-03 3.33461954e-02 3.33461954e-02    11.1192    11.1111
    48   3.318088 5.35516073e-03 5.35516073e-03 3.33456711e-02 3.33456711e-02    11.1149    11.1111
    49   3.329052 5.35521131e-03 5.35521131e-03 3.33453562e-02 3.33453562e-02    11.1111    11.1111
    50   3.339653 5.35536869e-03 5.35536869e-03 3.33443763e-02 3.33443763e-02    11.1164    11.1111
    51   3.349874 5.35556363e-03 5.35556363e-03 3.33431625e-02 3.33431625e-02    11.1247    11.1111
    52   3.359632 5.35589116e-03 5.35589116e-03 3.33411235e-02 3.33411235e-02    11.1420    11.1111
    53   3.368873 5.35642625e-03 5.35642625e-03 3.33377928e-02 3.33377928e-02    11.1653    11.1111
    54   3.377537 5.35726136e-03 5.35726136e-03 3.33325960e-02 3.33325960e-02    11.2039    11.1111
    55   3.385567 5.35850499e-03 5.35850499e-03 3.33248600e-02 3.33248600e-02    11.2510    11.1111
    56   3.392910 5.36027860e-03 5.36027860e-03 3.33138335e-02 3.33138335e-02    11.3129    11.1111
    57   3.399534 5.36271233e-03 5.36271233e-03 3.32987148e-02 3.32987148e-02    11.3817    11.1111
    58   3.405407 5.36594053e-03 5.36594053e-03 3.32786820e-02 3.32786820e-02    11.4673    11.1111
    59   3.410487 5.37009781e-03 5.37009781e-03 3.32529192e-02 3.32529192e-02    11.5572    11.1111
    60   3.414729 5.37531657e-03 5.37531657e-03 3.32206348e-02 3.32206348e-02    11.6646    11.1111
    61   3.418092 5.38172640e-03 5.38172640e-03 3.31810678e-02 3.31810678e-02    11.7711    11.1111
    62   3.420542 5.38945516e-03 5.38945516e-03 3.31334844e-02 3.31334844e-02    11.9014    11.1111
    63   3.422035 5.39863157e-03 5.39863157e-03 3.30771653e-02 3.30771653e-02    12.0231    11.1111
    64   3.422528 5.40938873e-03 5.40938873e-03 3.30113877e-02 3.30113877e-02    12.1783    11.1111
    65   3.421976 5.42186789e-03 5.42186789e-03 3.29354075e-02 3.29354075e-02    12.3236    11.1111
    66   3.420326 5.43622159e-03 5.43622159e-03 3.28484455e-02 3.28484455e-02    12.5032    11.1111
    67   3.417539 5.45261487e-03 5.45261487e-03 3.27496866e-02 3.27496866e-02    12.6780    11.1111
    68   3.413531 5.47122266e-03 5.47122266e-03 3.26383040e-02 3.26383040e-02    12.8797    11.1111
    69   3.408280 5.49222084e-03 5.49222084e-03 3.25135194e-02 3.25135194e-02    13.1172    11.1111
    70   3.402173 5.51576916e-03 5.51576916e-03 3.23747103e-02 3.23747103e-02    13.3723    11.1111
    71   3.395384 5.54198631e-03 5.54198631e-03 3.22215571e-02 3.22215571e-02    13.6074    11.1111
    72   3.387929 5.57092172e-03 5.57092172e-03 3.20541981e-02 3.20541981e-02    13.8281    11.1111
    73   3.379819 5.60253235e-03 5.60253235e-03 3.18733418e-02 3.18733418e-02    14.0144    11.1111
    74   3.371103 5.63667369e-03 5.63667369e-03 3.16802849e-02 3.16802849e-02    14.1747    11.1111
    75   3.361849 5.67310980e-03 5.67310980e-03 3.14768152e-02 3.14768152e-02    14.2909    11.1111
    76   3.352141 5.71154069e-03 5.71154069e-03 3.12650191e-02 3.12650191e-02    14.3806    11.1111
    77   3.342070 5.75163888e-03 5.75163888e-03 3.10470515e-02 3.10470515e-02    14.4376    11.1111
    78   3.331720 5.79308499e-03 5.79308499e-03 3.08249281e-02 3.08249281e-02    14.4862    11.1111
    79   3.321168 5.83559402e-03 5.83559402e-03 3.06003859e-02 3.06003859e-02    14.5077    11.1111
    80   3.310476 5.87892958e-03 5.87892958e-03 3.03748201e-02 3.03748201e-02    14.5254    11.1111
    81   3.299691 5.92290643e-03 5.92290643e-03 3.01492908e-02 3.01492908e-02    14.5222    11.1111
    82   3.288849 5.96738563e-03 5.96738563e-03 2.99245666e-02 2.99245666e-02    14.5323    11.1111
    83   3.277977 6.01226551e-03 6.01226551e-03 2.97011881e-02 2.97011881e-02    14.5201    11.1111
    84   3.267092 6.05747243e-03 6.05747243e-03 2.94795281e-02 2.94795281e-02    14.5223    11.1111
    85   3.256207 6.10295194e-03 6.10295194e-03 2.92598451e-02 2.92598451e-02    14.4979    11.1111
    86   3.245334 6.14866214e-03 6.14866214e-03 2.90423224e-02 2.90423224e-02    14.5018    11.1111
    87   3.234480 6.19456816e-03 6.19456816e-03 2.88270988e-02 2.88270988e-02    14.4717    11.1111
    88   3.223651 6.24063880e-03 6.24063880e-03 2.86142868e-02 2.86142868e-02    14.4760    11.1111
    89   3.212856 6.28684358e-03 6.28684358e-03 2.84039879e-02 2.84039879e-02    14.4319    11.1111
    90   3.202101 6.33315157e-03 6.33315157e-03 2.81962980e-02 2.81962980e-02    14.4397    11.1111
    91   3.191393 6.37952988e-03 6.37952988e-03 2.79913147e-02 2.79913147e-02    14.3855    11.1111
    92   3.180738 6.42594333e-03 6.42594333e-03 2.77891384e-02 2.77891384e-02    14.3998    11.1111
    93   3.170146 6.47235337e-03 6.47235337e-03 2.75898763e-02 2.75898763e-02    14.3248    11.1111
    94   3.159625 6.51871745e-03 6.51871745e-03 2.73936445e-02 2.73936445e-02    14.3465    11.1111
    95   3.149184 6.56498702e-03 6.56498702e-03 2.72005760e-02 2.72005760e-02    14.2543    11.1111
    96   3.138836 6.61110540e-03 6.61110540e-03 2.70108277e-02 2.70108277e-02    14.2899    11.1111
    97   3.128594 6.65700456e-03 6.65700456e-03 2.68245916e-02 2.68245916e-02    14.1779    11.1111
    98   3.118473 6.70260288e-03 6.70260288e-03 2.66421019e-02 2.66421019e-02    14.1810    11.1111
    99   3.108495 6.74780374e-03 6.74780374e-03 2.64636370e-02 2.64636370e-02    14.0721    11.1111
   100   3.098680 6.79249717e-03 6.79249717e-03 2.62895109e-02 2.62895109e-02    14.0557    11.1111
   101   3.089053 6.83656271e-03 6.83656271e-03 2.61200600e-02 2.61200600e-02    13.9394    11.1111
   102   3.079638 6.87987377e-03 6.87987377e-03 2.59556257e-02 2.59556257e-02    13.8977    11.1111
   103   3.070460 6.92230055e-03 6.92230055e-03 2.57965437e-02 2.57965437e-02    13.7718    11.1111
   104   3.061544 6.96371266e-03 6.96371266e-03 2.56431357e-02 2.56431357e-02    13.7122    11.1111
   105   3.052914 7.00398013e-03 7.00398013e-03 2.54957075e-02 2.54957075e-02    13.5760    11.1111
   106   3.044593 7.04297521e-03 7.04297521e-03 2.53545445e-02 2.53545445e-02    13.5000    11.1111
   107   3.036604 7.08057278e-03 7.08057278e-03 2.52199129e-02 2.52199129e-02    13.3549    11.1111
   108   3.028970 7.11665062e-03 7.11665062e-03 2.50920606e-02 2.50920606e-02    13.2701    11.1111
   109   3.025060 7.13517785e-03 7.13517785e-03 2.50269064e-02 2.50269064e-02    13.3675    11.1111
   110   3.115795 6.71471035e-03 6.71471035e-03 2.65940628e-02 2.65940628e-02    20.9128    11.1111
   111   3.205924 6.31666147e-03 6.31666147e-03 2.82699064e-02 2.82699064e-02    28.8886    11.1111
   112   3.285951 5.97932356e-03 5.97932356e-03 2.98648211e-02 2.98648211e-02    36.5739    11.1111
   113   3.350002 5.72003634e-03 5.72003634e-03 3.12185829e-02 3.12185829e-02    43.0522    11.1111
   114   3.396203 5.53881931e-03 5.53881931e-03 3.22399808e-02 3.22399808e-02    45.5811    11.1111
   115   3.425697 5.42564572e-03 5.42564572e-03 3.29124749e-02 3.29124749e-02    16.3661    11.1111
   116   3.466314 5.27295551e-03 5.27295551e-03 3.38655292e-02 3.38655292e-02    11.1111    11.1111
   117   3.445013 5.35257708e-03 5.35257708e-03 3.33617668e-02 3.33617668e-02    12.1836    11.1111
   118   3.439177 5.37456826e-03 5.37456826e-03 3.32252601e-02 3.32252601e-02    18.0785    11.1111
   119   3.424184 5.43140628e-03 5.43140628e-03 3.28775679e-02 3.28775679e-02    22.4524    11.1111
   120   3.399866 5.52465922e-03 5.52465922e-03 3.23226142e-02 3.23226142e-02    26.0674    11.1111
   121   3.365896 5.65715129e-03 5.65715129e-03 3.15656095e-02 3.15656095e-02    29.9838    11.1111
   122   3.322332 5.83089412e-03 5.83089412e-03 3.06250508e-02 3.06250508e-02    33.8363    11.1111
   123   3.269897 6.04579503e-03 6.04579503e-03 2.95364675e-02 2.95364675e-02    35.7199    11.1111
   124   3.209948 6.29934077e-03 6.29934077e-03 2.83476375e-02 2.83476375e-02    30.1524    11.1111
   125   3.144157 6.58735945e-03 6.58735945e-03 2.71081956e-02 2.71081956e-02    24.1036    11.1111
   126   3.074053 6.90566733e-03 6.90566733e-03 2.58586781e-02 2.58586781e-02    18.2114    11.1111
   127   3.008039 7.21628646e-03 7.21628646e-03 2.47456125e-02 2.47456125e-02    12.6976    11.1111
   128   3.013950 7.18803765e-03 7.18803765e-03 2.48428622e-02 2.48428622e-02    12.9353    11.1111
   129   3.020157 7.15847004e-03 7.15847004e-03 2.49454740e-02 2.49454740e-02    12.8956    11.1111
   130   3.026626 7.12775180e-03 7.12775180e-03 2.50529807e-02 2.50529807e-02    13.0892    11.1111
   131   3.033331 7.09602340e-03 7.09602340e-03 2.51650000e-02 2.51650000e-02    13.0633    11.1111
   132   3.040248 7.06340784e-03 7.06340784e-03 2.52812003e-02 2.52812003e-02    13.2193    11.1111
   133   3.047354 7.03001769e-03 7.03001769e-03 2.54012773e-02 2.54012773e-02    13.1988    11.1111
   134   3.054629 6.99596246e-03 6.99596246e-03 2.55249266e-02 2.55249266e-02    13.3287    11.1111
   135   3.062051 6.96135369e-03 6.96135369e-03 2.56518253e-02 2.56518253e-02    13.3120    11.1111
   136   3.069595 6.92630985e-03 6.92630985e-03 2.57816113e-02 2.57816113e-02    13.4172    11.1111
   137   3.077236 6.89095640e-03 6.89095640e-03 2.59138816e-02 2.59138816e-02    13.4001    11.1111
   138   3.084947 6.85542545e-03 6.85542545e-03 2.60481906e-02 2.60481906e-02    13.4807    11.1111
   139   3.092699 6.81985019e-03 6.81985019e-03 2.61840691e-02 2.61840691e-02    13.4554    11.1111
   140   3.100463 6.78436053e-03 6.78436053e-03 2.63210405e-02 2.63210405e-02    13.5079    11.1111
   141   3.108215 6.74907593e-03 6.74907593e-03 2.64586486e-02 2.64586486e-02    13.4700    11.1111
   142   3.115930 6.71410199e-03 6.71410199e-03 2.65964725e-02 2.65964725e-02    13.4986    11.1111
   143   3.123588 6.67952730e-03 6.67952730e-03 2.67341416e-02 2.67341416e-02    13.4497    11.1111
   144   3.131172 6.64542562e-03 6.64542562e-03 2.68713306e-02 2.68713306e-02    13.4593    11.1111
   145   3.138668 6.61185823e-03 6.61185823e-03 2.70077522e-02 2.70077522e-02    13.4026    11.1111
   146   3.146061 6.57887891e-03 6.57887891e-03 2.71431396e-02 2.71431396e-02    13.4024    11.1111
   147   3.153341 6.54653555e-03 6.54653555e-03 2.72772411e-02 2.72772411e-02    13.3430    11.1111
   148   3.160496 6.51487030e-03 6.51487030e-03 2.74098210e-02 2.74098210e-02    13.3365    11.1111
   149   3.167517 6.48391498e-03 6.48391498e-03 2.75406801e-02 2.75406801e-02    13.2713    11.1111
   150   3.174399 6.45368590e-03 6.45368590e-03 2.76696808e-02 2.76696808e-02    13.2579    11.1111
   151   3.181142 6.42417789e-03 6.42417789e-03 2.77967752e-02 2.77967752e-02    13.1845    11.1111
   152   3.187751 6.39536192e-03 6.39536192e-03 2.79220208e-02 2.79220208e-02    13.1680    11.1111
   153   3.194237 6.36718575e-03 6.36718575e-03 2.80455818e-02 2.80455818e-02    13.0918    11.1111
   154   3.200613 6.33957951e-03 6.33957951e-03 2.81677086e-02 2.81677086e-02    13.0867    11.1111
   155   3.206898 6.31246380e-03 6.31246380e-03 2.82887054e-02 2.82887054e-02    13.0189    11.1111
   156   3.213109 6.28576005e-03 6.28576005e-03 2.84088841e-02 2.84088841e-02    13.0344    11.1111
   157   3.219261 6.25939937e-03 6.25939937e-03 2.85285245e-02 2.85285245e-02    12.9721    11.1111
   158   3.225365 6.23332909e-03 6.23332909e-03 2.86478423e-02 2.86478423e-02    13.0089    11.1111
   159   3.231430 6.20751441e-03 6.20751441e-03 2.87669777e-02 2.87669777e-02    12.9479    11.1111
   160   3.237460 6.18193685e-03 6.18193685e-03 2.88860001e-02 2.88860001e-02    13.0036    11.1111
   161   3.243455 6.15658957e-03 6.15658957e-03 2.90049266e-02 2.90049266e-02    12.9409    11.1111
   162   3.249415 6.13147280e-03 6.13147280e-03 2.91237415e-02 2.91237415e-02    12.9776    11.1111
   163   3.255340 6.10658953e-03 6.10658953e-03 2.92424155e-02 2.92424155e-02    12.9285    11.1111
   164   3.261227 6.08194334e-03 6.08194334e-03 2.93609162e-02 2.93609162e-02    12.9537    11.1111
   165   3.267076 6.05753715e-03 6.05753715e-03 2.94792131e-02 2.94792131e-02    12.9123    11.1111
   166   3.272886 6.03337395e-03 6.03337395e-03 2.95972751e-02 2.95972751e-02    12.9266    11.1111
   167   3.278655 6.00945773e-03 6.00945773e-03 2.97150653e-02 2.97150653e-02    12.8928    11.1111
   168   3.284381 5.98579541e-03 5.98579541e-03 2.98325313e-02 2.98325313e-02    12.9012    11.1111
   169   3.290062 5.96239797e-03 5.96239797e-03 2.99495991e-02 2.99495991e-02    12.8726    11.1111
   170   3.295692 5.93928176e-03 5.93928176e-03 3.00661655e-02 3.00661655e-02    12.8737    11.1111
   171   3.301266 5.91646820e-03 5.91646820e-03 3.01820989e-02 3.01820989e-02    12.8471    11.1111
   172   3.306777 5.89398373e-03 5.89398373e-03 3.02972381e-02 3.02972381e-02    12.8418    11.1111
   173   3.312216 5.87185855e-03 5.87185855e-03 3.04113982e-02 3.04113982e-02    12.8136    11.1111
   174   3.317575 5.85012615e-03 5.85012615e-03 3.05243723e-02 3.05243723e-02    12.7985    11.1111
   175   3.322845 5.82882261e-03 5.82882261e-03 3.06359347e-02 3.06359347e-02    12.7656    11.1111
   176   3.328014 5.80798771e-03 5.80798771e-03 3.07458344e-02 3.07458344e-02    12.7436    11.1111
   177   3.333069 5.78766713e-03 5.78766713e-03 3.08537835e-02 3.08537835e-02    12.7064    11.1111
   178   3.337997 5.76791724e-03 5.76791724e-03 3.09594298e-02 3.09594298e-02    12.6740    11.1111
   179   3.342778 5.74881145e-03 5.74881145e-03 3.10623213e-02 3.10623213e-02    12.6280    11.1111
   180   3.347385 5.73044760e-03 5.73044760e-03 3.11618639e-02 3.11618639e-02    12.5854    11.1111
   181   3.351785 5.71295335e-03 5.71295335e-03 3.12572881e-02 3.12572881e-02    12.5281    11.1111
   182   3.355937 5.69648675e-03 5.69648675e-03 3.13476422e-02 3.13476422e-02    12.4668    11.1111
   183   3.359794 5.68122842e-03 5.68122842e-03 3.14318340e-02 3.14318340e-02    12.3839    11.1111
   184   3.363305 5.66736458e-03 5.66736458e-03 3.15087244e-02 3.15087244e-02    12.2914    11.1111
   185   3.366425 5.65506299e-03 5.65506299e-03 3.15772661e-02 3.15772661e-02    12.1753    11.1111
   186   3.369128 5.64444732e-03 5.64444732e-03 3.16366543e-02 3.16366543e-02    12.0500    11.1111
   187   3.371376 5.63557558e-03 5.63557558e-03 3.16864579e-02 3.16864579e-02    11.8924    11.1111
   188   3.372975 5.62842737e-03 5.62842737e-03 3.17267004e-02 3.17267004e-02    11.7310    11.1111
   189   3.373525 5.62290168e-03 5.62290168e-03 3.17578785e-02 3.17578785e-02    11.5782    11.1111
   190   3.373046 5.61882597e-03 5.61882597e-03 3.17809147e-02 3.17809147e-02    11.4517    11.1111
   191   3.371639 5.61597532e-03 5.61597532e-03 3.17970465e-02 3.17970465e-02    11.3214    11.1111
   192   3.369366 5.61410004e-03 5.61410004e-03 3.18076677e-02 3.18076677e-02    11.2395    11.1111
   193   3.366303 5.61295725e-03 5.61295725e-03 3.18141437e-02 3.18141437e-02    11.1579    11.1111
   194   3.362514 5.61234137e-03 5.61234137e-03 3.18176349e-02 3.18176349e-02    11.1224    11.1111
   195   3.358181 5.61157365e-03 5.61157365e-03 3.18219879e-02 3.18219879e-02    11.1111    11.1111
   196   3.352922 5.61218520e-03 5.61218520e-03 3.18185203e-02 3.18185203e-02    11.1163    11.1111
   197   3.347149 5.61257863e-03 5.61257863e-03 3.18162898e-02 3.18162898e-02    11.1469    11.1111
   198   3.340715 5.61335776e-03 5.61335776e-03 3.18118738e-02 3.18118738e-02    11.2041    11.1111
   199   3.333599 5.61463779e-03 5.61463779e-03 3.18046213e-02 3.18046213e-02    11.2703    11.1111
   200   3.325776 5.61655227e-03 5.61655227e-03 3.17937802e-02 3.17937802e-02    11.3498    11.1111
   201   3.317207 5.61922342e-03 5.61922342e-03 3.17786667e-02 3.17786667e-02    11.4281    11.1111
   202   3.307870 5.62273571e-03 5.62273571e-03 3.17588160e-02 3.17588160e-02    11.5080    11.1111
   203   3.297778 5.62711783e-03 5.62711783e-03 3.17340838e-02 3.17340838e-02    11.5781    11.1111
   204   3.286966 5.63233469e-03 5.63233469e-03 3.17046906e-02 3.17046906e-02    11.6416    11.1111
   205   3.275497 5.63828676e-03 5.63828676e-03 3.16712214e-02 3.16712214e-02    11.6875    11.1111
   206   3.272815 5.60854945e-03 5.60854945e-03 3.18391467e-02 3.18391467e-02    12.4420    11.1111
   207   3.317628 5.39774555e-03 5.39774555e-03 3.30825948e-02 3.30825948e-02    16.9858    11.1111
   208   3.358392 5.20746884e-03 5.20746884e-03 3.42914060e-02 3.42914060e-02    21.4079    11.1111
   209   3.395696 5.03437114e-03 5.03437114e-03 3.54704537e-02 3.54704537e-02    25.7077    11.1111
   210   3.430104 4.87555876e-03 4.87555876e-03 3.66258387e-02 3.66258387e-02    26.9588    11.1111
   211   3.462139 4.72855055e-03 4.72855055e-03 3.77645172e-02 3.77645172e-02    26.2099    11.1111
   212   3.492285 4.59121000e-03 4.59121000e-03 3.88941975e-02 3.88941975e-02    25.5906    11.1111
   213   3.520998 4.46167500e-03 4.46167500e-03 4.00234057e-02 4.00234057e-02    25.0440    11.1111
   214   3.548736 4.33830409e-03 4.33830409e-03 4.11615749e-02 4.11615749e-02    24.5689    11.1111
   215   3.575918 4.21963768e-03 4.21963768e-03 4.23191379e-02 4.23191379e-02    24.2672    11.1111
   216   3.602918 4.10436502e-03 4.10436502e-03 4.35076870e-02 4.35076870e-02    24.2352    11.1111
   217   3.630113 3.99129222e-03 3.99129222e-03 4.47402543e-02 4.47402543e-02    24.3500    11.1111
   218   3.657893 3.87931833e-03 3.87931833e-03 4.60316513e-02 4.60316513e-02    24.5334    11.1111
   219   3.686646 3.76743151e-03 3.76743151e-03 4.73987192e-02 4.73987192e-02    24.8046    11.1111
   220   3.716746 3.65473414e-03 3.65473414e-03 4.88603061e-02 4.88603061e-02    25.2720    11.1111
   221   3.748561 3.54049829e-03 3.54049829e-03 5.04368068e-02 5.04368068e-02    25.9098    11.1111
   222   3.782405 3.42424376e-03 3.42424376e-03 5.21491578e-02 5.21491578e-02    26.7820    11.1111
   223   3.818504 3.30582068e-03 3.30582068e-03 5.40172762e-02 5.40172762e-02    27.6837    11.1111
   224   3.856923 3.18546832e-03 3.18546832e-03 5.60581399e-02 5.60581399e-02    28.8044    11.1111
   225   3.897572 3.06382940e-03 3.06382940e-03 5.82837376e-02 5.82837376e-02    29.9394    11.1111
   226   3.940181 2.94190865e-03 2.94190865e-03 6.06991753e-02 6.06991753e-02    31.1236    11.1111
   227   3.984312 2.82099401e-03 2.82099401e-03 6.33008890e-02 6.33008890e-02    32.3154    11.1111
   228   4.029344 2.70257099e-03 2.70257099e-03 6.60746485e-02 6.60746485e-02    33.1736    11.1111
   229   4.074535 2.58825409e-03 2.58825409e-03 6.89930055e-02 6.89930055e-02    33.6503    11.1111
   230   4.118980 2.47974077e-03 2.47974077e-03 7.20121356e-02 7.20121356e-02    33.8946    11.1111
   231   4.161638 2.37876740e-03 2.37876740e-03 7.50688903e-02 7.50688903e-02    33.6603    11.1111
   232   4.201298 2.28703210e-03 2.28703210e-03 7.80799835e-02 7.80799835e-02    32.8925    11.1111
   233   4.236665 2.20605831e-03 2.20605831e-03 8.09459241e-02 8.09459241e-02    31.5917    11.1111
   234   4.266562 2.13700503e-03 2.13700503e-03 8.35615386e-02 8.35615386e-02    29.7052    11.1111
   235   4.290146 2.08046649e-03 2.08046649e-03 8.58323983e-02 8.58323983e-02    27.2281    11.1111
   236   4.307058 2.03632882e-03 2.03632882e-03 8.76928257e-02 8.76928257e-02    24.2187    11.1111
   237   4.317343 2.00375442e-03 2.00375442e-03 8.91184204e-02 8.91184204e-02    20.8376    11.1111
   238   4.321666 1.98134195e-03 1.98134195e-03 9.01265066e-02 9.01265066e-02    17.1999    11.1111
   239   4.320988 1.96747522e-03 1.96747522e-03 9.07617169e-02 9.07617169e-02    14.0589    11.1111
   240   4.316253 1.96082939e-03 1.96082939e-03 9.10693352e-02 9.10693352e-02    11.4603    11.1111
   241   4.316766 1.94752962e-03 1.94752962e-03 9.16912516e-02 9.16912516e-02    11.1111    11.1111
   242   4.294827 1.96885445e-03 1.96885445e-03 9.06981361e-02 9.06981361e-02    11.3205    11.1111
   243   4.275835 1.98736360e-03 1.98736360e-03 8.98534261e-02 8.98534261e-02    15.6267    11.1111
   244   4.247800 2.02141629e-03 2.02141629e-03 8.83397591e-02 8.83397591e-02    24.2694    11.1111
   245   4.206539 2.07810318e-03 2.07810318e-03 8.59300109e-02 8.59300109e-02    37.9015    11.1111
   246   4.147250 2.16675766e-03 2.16675766e-03 8.24141212e-02 8.24141212e-02    56.8373    11.1111
   247   4.064968 2.29924445e-03 2.29924445e-03 7.76652647e-02 7.76652647e-02    82.1289    11.1111
   248   3.955048 2.49058928e-03 2.49058928e-03 7.16984652e-02 7.16984652e-02   115.9593    11.1111
   249   3.813632 2.75989789e-03 2.75989789e-03 6.47021868e-02 6.47021868e-02   117.1624    11.1111
   250   3.638136 3.13114178e-03 3.13114178e-03 5.70307706e-02 5.70307706e-02    91.1476    11.1111
   251   3.428118 3.63267229e-03 3.63267229e-03 4.91570431e-02 4.91570431e-02    64.4642    11.1111
   252   3.186228 4.29311241e-03 4.29311241e-03 4.15948644e-02 4.15948644e-02    39.0139    11.1111
   253   2.919414 5.13001310e-03 5.13001310e-03 3.48091564e-02 3.48091564e-02    16.1830    11.1111
   254   2.852372 5.35868426e-03 5.35868426e-03 3.33237452e-02 3.33237452e-02    11.1749    11.1111
   255   2.852711 5.35749160e-03 5.35749160e-03 3.33311635e-02 3.33311635e-02    11.1111    11.1111
   256   2.852494 5.35825303e-03 5.35825303e-03 3.33264270e-02 3.33264270e-02    11.1601    11.1111
