# GRID_PARAMS_SHA256=fd052e1377e815dc2fdd085531dd1b7c0ba7de070013404981a93328e8b13aad
# GRID_PARAMS_JSON={"alpha":0.5,"boundary_condition":"fixed_resampled_boundaries","gamma":2.5,"generator":"periodic_hill_steger_sorenson","hill_shape":{"ly":9.0,"profile":"Mellen-Frohlich-Rodi periodic hill polynomial","reference_height":1.0,"scale":1.9285714285714286},"interpolation":{"boundary":"scipy_cubic","pq":"scipy_rect_bivariate_spline"},"ly":9.0,"lz":3.036,"mode":"adaptive_poisson","ni":257,"nj":129,"poisson":{"control_functions":"reverse_computed_PQ","max_iter":100000,"omega":1.0,"print_every":2000,"require_converged":true,"tol":1e-12},"reference_grid":"3.fine grid.dat","schema":1,"vertical_redistribution":"physical_z_vinokur_tanh"}
TITLE     = "Periodic hill 257x129"
VARIABLES = "x corner"
"y corner"
ZONE T="I257_J129_g2.50_a0.5"
 I=257, J=129, K=1,F=POINT
DT=(SINGLE SINGLE )
 -1.164150026E-10  2.800000086E-02
  6.890608665E-04  2.800006690E-02
  1.378127721E-03  2.799988716E-02
  2.067182264E-03  2.800021773E-02
  2.756257932E-03  2.799985505E-02
  3.445354214E-03  2.799261803E-02
  4.134577991E-03  2.796625525E-02
  4.823829301E-03  2.791896704E-02
  5.512844455E-03  2.784996506E-02
  6.201916404E-03  2.775383044E-02
  6.891920540E-03  2.762628746E-02
  7.581750038E-03  2.746352245E-02
  8.270541207E-03  2.726158259E-02
  8.958373407E-03  2.701632717E-02
  9.649749933E-03  2.672293965E-02
  1.033949938E-02  2.638561159E-02
  1.102755271E-02  2.600834908E-02
  1.171425452E-02  2.559486648E-02
  1.240517434E-02  2.514541149E-02
  1.309479747E-02  2.466693303E-02
  1.378316558E-02  2.416337895E-02
  1.447152093E-02  2.363764118E-02
  1.516748195E-02  2.308687420E-02
  1.586861092E-02  2.251569465E-02
  1.657355398E-02  2.192850097E-02
  1.728287244E-02  2.132804590E-02
  1.799814533E-02  2.071608376E-02
  1.871929002E-02  2.009635203E-02
  1.944479935E-02  1.947364550E-02
  2.017552048E-02  1.885107219E-02
  2.091177450E-02  1.823101895E-02
  2.165376370E-02  1.761315397E-02
  2.240094494E-02  1.699770230E-02
  2.315331005E-02  1.638425992E-02
  2.391081267E-02  1.577237613E-02
  2.467440674E-02  1.516091549E-02
  2.544349941E-02  1.454992497E-02
  2.621785875E-02  1.393915063E-02
  2.699739671E-02  1.332817026E-02
  2.778304519E-02  1.271570045E-02
  2.857472819E-02  1.210125533E-02
  2.937168878E-02  1.148481703E-02
  3.017380341E-02  1.086595611E-02
  3.098195514E-02  1.024423710E-02
  3.179656565E-02  9.621098976E-03
  3.261653685E-02  8.999492006E-03
  3.344223715E-02  8.381344819E-03
  3.427406601E-02  7.768674959E-03
  3.511187224E-02  7.164023006E-03
  3.595550922E-02  6.569972294E-03
  3.680541982E-02  5.988863644E-03
  3.766202597E-02  5.423166314E-03
  3.852393270E-02  4.876544355E-03
  3.939188053E-02  4.351422172E-03
  4.026669839E-02  3.850405516E-03
  4.114855514E-02  3.375659354E-03
  4.203602159E-02  2.928968267E-03
  4.292933220E-02  2.510821706E-03
  4.382970006E-02  2.121495399E-03
  4.473701803E-02  1.761936228E-03
  4.565065053E-02  1.433211429E-03
  4.657024899E-02  1.136257070E-03
  4.749688934E-02  8.715461536E-04
  4.843036153E-02  6.400644552E-04
  4.937040061E-02  4.427660024E-04
  5.031728375E-02  2.804773392E-04
  5.127119491E-02  1.543427204E-04
  5.223180312E-02  6.448060184E-05
  5.319863796E-02  1.355650831E-05
  5.417342610E-02  3.715585596E-07
  5.515540482E-02 -1.913368042E-07
  5.614371053E-02  6.464010156E-08
  5.713847466E-02 -1.028210947E-08
  5.814098517E-02 -3.518758033E-09
  5.915169772E-02  3.301058382E-09
  6.016896618E-02 -1.288856183E-09
  6.119284310E-02  2.729736732E-10
  6.222406425E-02  2.815019051E-11
  6.326433819E-02 -5.414312922E-11
  6.431145488E-02  2.473829475E-11
  6.536540016E-02 -6.383938517E-12
  6.642614643E-02  1.721418147E-13
  6.749672186E-02  8.301380416E-13
  6.857451331E-02 -4.576772988E-13
  6.965934951E-02  1.385939974E-13
  7.075126190E-02 -1.542863060E-14
  7.185238414E-02 -1.148213469E-14
  7.296172867E-02  8.149730890E-15
  7.407832239E-02 -2.853620118E-15
  7.520222524E-02  4.926614672E-16
  7.633481267E-02  1.318389842E-16
  7.747667597E-02 -1.370431546E-16
  7.862600079E-02  5.551115123E-17
  7.978285523E-02 -1.561251128E-17
  8.094775211E-02  1.734723476E-18
  8.212307770E-02  3.469446952E-18
  8.330610022E-02  1.734723476E-18
  8.449685294E-02  0.000000000E+00
  8.569536591E-02 -1.734723476E-18
  8.690474532E-02  1.734723476E-18
  8.812245214E-02  0.000000000E+00
  8.934808732E-02 -1.734723476E-18
  9.058170906E-02  0.000000000E+00
  9.182554274E-02  0.000000000E+00
  9.307893645E-02  1.734723476E-18
  9.434053768E-02  0.000000000E+00
  9.561037575E-02 -1.734723476E-18
  9.688966198E-02  0.000000000E+00
  9.817980742E-02  0.000000000E+00
  9.947839135E-02  1.734723476E-18
  1.007854447E-01  0.000000000E+00
  1.021012502E-01 -1.734723476E-18
  1.034291983E-01  0.000000000E+00
  1.047658088E-01  0.000000000E+00
  1.061111654E-01  0.000000000E+00
  1.074653358E-01  0.000000000E+00
  1.088313624E-01  0.000000000E+00
  1.102071623E-01  0.000000000E+00
  1.115919740E-01  0.000000000E+00
  1.129858256E-01  0.000000000E+00
  1.143908985E-01  0.000000000E+00
  1.158069922E-01  0.000000000E+00
  1.172323464E-01  0.000000000E+00
  1.186670149E-01  0.000000000E+00
  1.201121322E-01  0.000000000E+00
  1.215697649E-01  0.000000000E+00
  1.230369478E-01  0.000000000E+00
  1.245137179E-01  0.000000000E+00
  1.260001063E-01  0.000000000E+00
  1.274864091E-01  0.000000000E+00
  1.289631492E-01  0.000000000E+00
  1.304303308E-01  0.000000000E+00
  1.318879687E-01  0.000000000E+00
  1.333330860E-01  0.000000000E+00
  1.347677545E-01  0.000000000E+00
  1.361931435E-01  0.000000000E+00
  1.376092881E-01  0.000000000E+00
  1.390142925E-01  0.000000000E+00
  1.404081294E-01  0.000000000E+00
  1.417929386E-01  0.000000000E+00
  1.431687400E-01  0.000000000E+00
  1.445347723E-01  0.000000000E+00
  1.458889376E-01  0.000000000E+00
  1.472342885E-01  0.000000000E+00
  1.485708989E-01  0.000000000E+00
  1.498988581E-01  0.000000000E+00
  1.512146578E-01  0.000000000E+00
  1.525217136E-01  0.000000000E+00
  1.538202986E-01  0.000000000E+00
  1.551104383E-01  0.000000000E+00
  1.563897188E-01 -3.469446952E-18
  1.576595558E-01  0.000000000E+00
  1.589211598E-01  3.469446952E-18
  1.601745581E-01  0.000000000E+00
  1.614183918E-01  0.000000000E+00
  1.626520136E-01  0.000000000E+00
  1.638776520E-01  0.000000000E+00
  1.650953631E-01  0.000000000E+00
  1.663047425E-01  0.000000000E+00
  1.675032554E-01  0.000000000E+00
  1.686940044E-01  0.000000000E+00
  1.698770509E-01  0.000000000E+00
  1.710524499E-01  3.469446952E-18
  1.722172669E-01 -1.040834086E-17
  1.733740960E-01  5.551115123E-17
  1.745234199E-01 -1.353084311E-16
  1.756652883E-01  1.318389842E-16
  1.767978756E-01  4.926614672E-16
  1.779217738E-01 -2.844946501E-15
  1.790383677E-01  8.132383655E-15
  1.801477168E-01 -1.145611384E-14
  1.812488390E-01 -1.539046668E-14
  1.823407514E-01  1.382574610E-13
  1.834255876E-01 -4.565757494E-13
  1.845033774E-01  8.281292319E-13
  1.855739471E-01  1.717202769E-13
  1.866347715E-01 -6.369231531E-12
  1.876886930E-01  2.467651083E-11
  1.887357617E-01 -5.401172565E-11
  1.897760329E-01  2.808226568E-11
  1.908072541E-01  2.723157186E-10
  1.918311353E-01 -1.285760054E-09
  1.928484057E-01  3.293094214E-09
  1.938591263E-01 -3.510572347E-09
  1.948617110E-01 -1.025842455E-08
  1.958564276E-01  6.447826344E-08
  1.968446983E-01 -1.908730142E-07
  1.978266749E-01  3.708498919E-07
  1.988014630E-01  1.355424699E-05
  1.997682926E-01  6.448777512E-05
  2.007289019E-01  1.543579547E-04
  2.016828172E-01  2.804945799E-04
  2.026297003E-01  4.427859967E-04
  2.035697417E-01  6.400910485E-04
  2.045032657E-01  8.715765544E-04
  2.054299215E-01  1.136295489E-03
  2.063494541E-01  1.433252825E-03
  2.072630897E-01  1.761984924E-03
  2.081704061E-01  2.121550038E-03
  2.090708083E-01  2.510869254E-03
  2.099641623E-01  2.929015317E-03
  2.108515557E-01  3.375709800E-03
  2.117334041E-01  3.850464178E-03
  2.126082259E-01  4.351490145E-03
  2.134761735E-01  4.876623939E-03
  2.143380753E-01  5.423237104E-03
  2.151946847E-01  5.988939696E-03
  2.160445925E-01  6.570056604E-03
  2.168882540E-01  7.164106639E-03
  2.177261284E-01  7.768764541E-03
  2.185579663E-01  8.381433352E-03
  2.193836664E-01  8.999576011E-03
  2.202035987E-01  9.621191087E-03
  2.210181409E-01  1.024434003E-02
  2.218263003E-01  1.086605771E-02
  2.226284202E-01  1.148491339E-02
  2.234253737E-01  1.210136000E-02
  2.242170718E-01  1.271580005E-02
  2.250027899E-01  1.332826646E-02
  2.257822698E-01  1.393924838E-02
  2.265565900E-01  1.455003157E-02
  2.273256891E-01  1.516101461E-02
  2.280892881E-01  1.577247476E-02
  2.288467895E-01  1.638435864E-02
  2.295991540E-01  1.699780105E-02
  2.303463348E-01  1.761325262E-02
  2.310883208E-01  1.823111989E-02
  2.318245789E-01  1.885117671E-02
  2.325553590E-01  1.947374571E-02
  2.332809152E-01  2.009644608E-02
  2.340020469E-01  2.071618206E-02
  2.347172459E-01  2.132814216E-02
  2.354265356E-01  2.192868234E-02
  2.361315291E-01  2.251585946E-02
  2.368327104E-01  2.308696403E-02
  2.375285907E-01  2.363773997E-02
  2.382169268E-01  2.416349480E-02
  2.389053139E-01  2.466697651E-02
  2.395949318E-01  2.514543071E-02
  2.402858484E-01  2.559496672E-02
  2.409725546E-01  2.600836829E-02
  2.416606114E-01  2.638565188E-02
  2.423503468E-01  2.672305752E-02
  2.430417315E-01  2.701642064E-02
  2.437295686E-01  2.726158615E-02
  2.444183552E-01  2.746358617E-02
  2.451081814E-01  2.762636753E-02
  2.457981912E-01  2.775382339E-02
  2.464872627E-01  2.784996197E-02
  2.471762767E-01  2.791896959E-02
  2.478655289E-01  2.796625431E-02
  2.485547528E-01  2.799261822E-02
  2.492438495E-01  2.799985507E-02
  2.499329149E-01  2.800021768E-02
  2.506219652E-01  2.799988718E-02
  2.513110323E-01  2.800006689E-02
  2.520000935E-01  2.800000086E-02
 -1.047740006E-09  2.818708388E-02
  6.891392058E-04  2.818714971E-02
  1.378366814E-03  2.818697056E-02
  2.067991122E-03  2.818730004E-02
  2.758678928E-03  2.818693855E-02
  3.451066223E-03  2.817972529E-02
  4.145017943E-03  2.815344903E-02
  4.839996955E-03  2.810631603E-02
  5.535821277E-03  2.803754052E-02
  6.232908291E-03  2.794172143E-02
  6.931780823E-03  2.781459707E-02
  7.631669914E-03  2.765236627E-02
  8.331925453E-03  2.745108922E-02
  9.032573060E-03  2.720663876E-02
  9.735504293E-03  2.691421419E-02
  1.043713245E-02  2.657799330E-02
  1.113692122E-02  2.620196902E-02
  1.183539775E-02  2.578984354E-02
  1.253520671E-02  2.534186372E-02
  1.323361680E-02  2.486495571E-02
  1.393032079E-02  2.436305437E-02
  1.462729694E-02  2.383904216E-02
  1.532933608E-02  2.329008288E-02
  1.603566526E-02  2.272077803E-02
  1.674553934E-02  2.213551162E-02
  1.745934556E-02  2.153702734E-02
  1.817770047E-02  2.092707375E-02
  1.890047696E-02  2.030937608E-02
  1.962711318E-02  1.968871337E-02
  2.035820617E-02  1.906818345E-02
  2.109447786E-02  1.845016531E-02
  2.183608197E-02  1.783432827E-02
  2.258303092E-02  1.722089660E-02
  2.333532525E-02  1.660946764E-02
  2.409301915E-02  1.599959215E-02
  2.485654163E-02  1.539013843E-02
  2.562572694E-02  1.478115327E-02
  2.640045070E-02  1.417238358E-02
  2.718070654E-02  1.356340855E-02
  2.796690487E-02  1.295294896E-02
  2.875921970E-02  1.234052055E-02
  2.955714004E-02  1.172610550E-02
  3.036037744E-02  1.110927578E-02
  3.116917408E-02  1.048959735E-02
  3.198361865E-02  9.868504463E-03
  3.280317748E-02  9.248937705E-03
  3.362782878E-02  8.632819375E-03
  3.445770423E-02  8.022160394E-03
  3.529279720E-02  7.419493005E-03
  3.613304430E-02  6.827392061E-03
  3.697866924E-02  6.248190702E-03
  3.782981118E-02  5.684350080E-03
  3.868583698E-02  5.139522220E-03
  3.954704792E-02  4.616123571E-03
  4.041414672E-02  4.116751331E-03
  4.128747688E-02  3.643563362E-03
  4.216643453E-02  3.198338385E-03
  4.305111876E-02  2.781564248E-03
  4.394235488E-02  2.393515771E-03
  4.484018464E-02  2.035136731E-03
  4.574415950E-02  1.707490858E-03
  4.665411050E-02  1.411511150E-03
  4.757071008E-02  1.147669057E-03
  4.849386303E-02  9.169471181E-04
  4.942344305E-02  7.202962300E-04
  5.035978269E-02  5.585402240E-04
  5.130293659E-02  4.328195989E-04
  5.225281932E-02  3.432524220E-04
  5.321038702E-02  2.924954694E-04
  5.417842741E-02  2.793537948E-04
  5.515703899E-02  2.787927469E-04
  5.614443308E-02  2.790478837E-04
  5.713916829E-02  2.789732074E-04
  5.814163430E-02  2.789799485E-04
  5.915208483E-02  2.789867460E-04
  6.016933300E-02  2.789821711E-04
  6.119335604E-02  2.789837278E-04
  6.222481337E-02  2.789834838E-04
  6.326477227E-02  2.789834018E-04
  6.431176464E-02  2.789834804E-04
  6.536572682E-02  2.789834494E-04
  6.642685992E-02  2.789834559E-04
  6.749709978E-02  2.789834566E-04
  6.857471848E-02  2.789834553E-04
  6.965954722E-02  2.789834559E-04
  7.075176054E-02  2.789834557E-04
  7.185274978E-02  2.789834557E-04
  7.296191728E-02  2.789834557E-04
  7.407846768E-02  2.789834557E-04
  7.520251565E-02  2.789834557E-04
  7.633518592E-02  2.789834557E-04
  7.747677884E-02  2.789834557E-04
  7.862605556E-02  2.789834557E-04
  7.978304582E-02  2.789834557E-04
  8.094823634E-02  2.789834557E-04
  8.212321387E-02  2.789834557E-04
  8.330609591E-02  2.789834557E-04
  8.449686025E-02  2.789834557E-04
  8.569574887E-02  2.789834557E-04
  8.690483220E-02  2.789834557E-04
  8.812240706E-02  2.789834557E-04
  8.934807290E-02  2.789834557E-04
  9.058198010E-02  2.789834557E-04
  9.182573745E-02  2.789834557E-04
  9.307884449E-02  2.789834557E-04
  9.434039605E-02  2.789834557E-04
  9.561044088E-02  2.789834557E-04
  9.688986284E-02  2.789834557E-04
  9.817970088E-02  2.789834557E-04
  9.947823586E-02  2.789834557E-04
  1.007854060E-01  2.789834557E-04
  1.021015639E-01  2.789834557E-04
  1.034290470E-01  2.789834557E-04
  1.047655403E-01  2.789834557E-04
  1.061109748E-01  2.789834557E-04
  1.074654842E-01  2.789834557E-04
  1.088312697E-01  2.789834557E-04
  1.102069172E-01  2.789834557E-04
  1.115917119E-01  2.789834557E-04
  1.129857587E-01  2.789834557E-04
  1.143908066E-01  2.789834557E-04
  1.158066535E-01  2.789834557E-04
  1.172319983E-01  2.789834557E-04
  1.186668146E-01  2.789834557E-04
  1.201120462E-01  2.789834557E-04
  1.215694154E-01  2.789834557E-04
  1.230365021E-01  2.789834557E-04
  1.245135010E-01  2.789834557E-04
  1.259998928E-01  2.789834557E-04
  1.274861434E-01  2.789834557E-04
  1.289630932E-01  2.789834557E-04
  1.304301499E-01  2.789834557E-04
  1.318874586E-01  2.789834557E-04
  1.333327682E-01  2.789834557E-04
  1.347676079E-01  2.789834557E-04
  1.361929794E-01  2.789834557E-04
  1.376088754E-01  2.789834557E-04
  1.390138453E-01  2.789834557E-04
  1.404078750E-01  2.789834557E-04
  1.417926800E-01  2.789834557E-04
  1.431683278E-01  2.789834557E-04
  1.445341125E-01  2.789834557E-04
  1.458886352E-01  2.789834557E-04
  1.472340045E-01  2.789834557E-04
  1.485704697E-01  2.789834557E-04
  1.498980364E-01  2.789834557E-04
  1.512141923E-01  2.789834557E-04
  1.525213568E-01  2.789834557E-04
  1.538198952E-01  2.789834557E-04
  1.551097276E-01  2.789834557E-04
  1.563891570E-01  2.789834557E-04
  1.576592044E-01  2.789834557E-04
  1.589207535E-01  2.789834557E-04
  1.601738593E-01  2.789834557E-04
  1.614176188E-01  2.789834557E-04
  1.626515281E-01  2.789834557E-04
  1.638771890E-01  2.789834557E-04
  1.650947575E-01  2.789834557E-04
  1.663038421E-01  2.789834557E-04
  1.675027311E-01  2.789834557E-04
  1.686934966E-01  2.789834557E-04
  1.698764177E-01  2.789834557E-04
  1.710514612E-01  2.789834557E-04
  1.722165741E-01  2.789834557E-04
  1.733735461E-01  2.789834557E-04
  1.745228283E-01  2.789834557E-04
  1.756644106E-01  2.789834557E-04
  1.767970815E-01  2.789834557E-04
  1.779211387E-01  2.789834557E-04
  1.790376845E-01  2.789834557E-04
  1.801468392E-01  2.789834557E-04
  1.812478307E-01  2.789834557E-04
  1.823400490E-01  2.789834559E-04
  1.834248853E-01  2.789834553E-04
  1.845025018E-01  2.789834566E-04
  1.855727407E-01  2.789834559E-04
  1.866339517E-01  2.789834494E-04
  1.876878919E-01  2.789834803E-04
  1.887348285E-01  2.789834019E-04
  1.897747817E-01  2.789834837E-04
  1.908062373E-01  2.789837272E-04
  1.918302784E-01  2.789821742E-04
  1.928474810E-01  2.789867380E-04
  1.938578675E-01  2.789799567E-04
  1.948604138E-01  2.789732310E-04
  1.958551701E-01  2.790477224E-04
  1.968425511E-01  2.787932092E-04
  1.978211682E-01  2.793530884E-04
  1.987892189E-01  2.924932155E-04
  1.997466945E-01  3.432595718E-04
  2.006965837E-01  4.328347832E-04
  2.016398056E-01  5.585574080E-04
  2.025761269E-01  7.203161587E-04
  2.035056904E-01  9.169736242E-04
  2.044288794E-01  1.147699358E-03
  2.053455172E-01  1.411549444E-03
  2.062554617E-01  1.707532118E-03
  2.071594221E-01  2.035185266E-03
  2.080572302E-01  2.393570231E-03
  2.089485052E-01  2.781611639E-03
  2.098332246E-01  3.198385281E-03
  2.107120812E-01  3.643613642E-03
  2.115853994E-01  4.116809801E-03
  2.124525034E-01  4.616191321E-03
  2.133136921E-01  5.139601543E-03
  2.141697154E-01  5.684420637E-03
  2.150208429E-01  6.248266504E-03
  2.158664663E-01  6.827476094E-03
  2.167067929E-01  7.419576363E-03
  2.175420043E-01  8.022249682E-03
  2.183718753E-01  8.632907617E-03
  2.191965341E-01  9.249021434E-03
  2.200160464E-01  9.868596271E-03
  2.208304209E-01  1.048969995E-02
  2.216393201E-01  1.110937705E-02
  2.224425969E-01  1.172620154E-02
  2.232404836E-01  1.234062487E-02
  2.240328404E-01  1.295304824E-02
  2.248191672E-01  1.356350444E-02
  2.255993427E-01  1.417248101E-02
  2.263740222E-01  1.478125952E-02
  2.271432893E-01  1.539023721E-02
  2.279068696E-01  1.599969046E-02
  2.286645839E-01  1.660956604E-02
  2.294168177E-01  1.722099503E-02
  2.301637502E-01  1.783442659E-02
  2.309054309E-01  1.845026593E-02
  2.316417013E-01  1.906828762E-02
  2.323728566E-01  1.968881325E-02
  2.330995528E-01  2.030946981E-02
  2.338223002E-01  2.092717173E-02
  2.345405922E-01  2.153712327E-02
  2.352544091E-01  2.213569239E-02
  2.359644347E-01  2.272094230E-02
  2.366708473E-01  2.329017242E-02
  2.373727288E-01  2.383914063E-02
  2.380696482E-01  2.436316984E-02
  2.387663979E-01  2.486499905E-02
  2.394648487E-01  2.534188289E-02
  2.401646689E-01  2.578994344E-02
  2.408631416E-01  2.620198817E-02
  2.415629156E-01  2.657803345E-02
  2.422645659E-01  2.691433167E-02
  2.429675430E-01  2.720673192E-02
  2.436681432E-01  2.745109276E-02
  2.443683786E-01  2.765242979E-02
  2.450682874E-01  2.781467688E-02
  2.457671962E-01  2.794171440E-02
  2.464643151E-01  2.803753744E-02
  2.471600964E-01  2.810631857E-02
  2.478550679E-01  2.815344809E-02
  2.485490477E-01  2.817972547E-02
  2.492414052E-01  2.818693857E-02
  2.499320877E-01  2.818729999E-02
  2.506217428E-01  2.818697058E-02
  2.513109730E-01  2.818714970E-02
  2.520000041E-01  2.818708388E-02
 -1.047740006E-09  2.838042766E-02
  6.894502880E-04  2.838049326E-02
  1.379135055E-03  2.838031472E-02
  2.069652554E-03  2.838064308E-02
  2.762232173E-03  2.838028282E-02
  3.458037056E-03  2.837309410E-02
  4.156746919E-03  2.834690727E-02
  4.857544942E-03  2.829993467E-02
  5.560276826E-03  2.823139322E-02
  6.265378942E-03  2.813590021E-02
  6.973186109E-03  2.800920848E-02
  7.683162355E-03  2.784752978E-02
  8.394788202E-03  2.764693771E-02
  9.107860442E-03  2.740331916E-02
  9.822448074E-03  2.711188975E-02
  1.053593197E-02  2.677681308E-02
  1.124739564E-02  2.640206847E-02
  1.195723153E-02  2.599134552E-02
  1.266634568E-02  2.554489026E-02
  1.337376399E-02  2.506960524E-02
  1.407892718E-02  2.456941195E-02
  1.478405380E-02  2.404718304E-02
  1.549237337E-02  2.350009197E-02
  1.620426221E-02  2.293272455E-02
  1.691924717E-02  2.234944990E-02
  1.763747455E-02  2.175300236E-02
  1.835906815E-02  2.114512455E-02
  1.908384005E-02  2.052952900E-02
  1.981194890E-02  1.991097851E-02
  2.054375161E-02  1.929256036E-02
  2.128013173E-02  1.867664544E-02
  2.202167985E-02  1.806290419E-02
  2.276851234E-02  1.745156013E-02
  2.352075984E-02  1.684221197E-02
  2.427869569E-02  1.623441198E-02
  2.504228261E-02  1.562703233E-02
  2.581157398E-02  1.502011965E-02
  2.658664913E-02  1.441342171E-02
  2.736761872E-02  1.380651912E-02
  2.815445528E-02  1.319813703E-02
  2.894724577E-02  1.258779281E-02
  2.974593404E-02  1.197546872E-02
  3.055018731E-02  1.136073817E-02
  3.135952738E-02  1.074316861E-02
  3.217375742E-02  1.012418940E-02
  3.299269118E-02  9.506731134E-03
  3.381612610E-02  8.892709557E-03
  3.464400679E-02  8.284128749E-03
  3.547632870E-02  7.683512337E-03
  3.631312892E-02  7.093426412E-03
  3.715441492E-02  6.516196170E-03
  3.800013013E-02  5.954274391E-03
  3.885017114E-02  5.411300672E-03
  3.970460579E-02  4.889683235E-03
  4.056402332E-02  4.392010441E-03
  4.142891355E-02  3.920432809E-03
  4.229931895E-02  3.476723007E-03
  4.317534999E-02  3.061367221E-03
  4.405744924E-02  2.674639337E-03
  4.494572165E-02  2.317479921E-03
  4.583999004E-02  1.990949082E-03
  4.674020756E-02  1.695976641E-03
  4.764672313E-02  1.433032446E-03
  4.855956309E-02  1.203095693E-03
  4.947873117E-02  1.007114040E-03
  5.040450277E-02  8.459085167E-04
  5.133712804E-02  7.206157397E-04
  5.227668858E-02  6.313533748E-04
  5.322519401E-02  5.807691566E-04
  5.418666067E-02  5.676722052E-04
  5.516165945E-02  5.671130667E-04
  5.614759801E-02  5.673673352E-04
  5.714180480E-02  5.672929130E-04
  5.814393497E-02  5.672996312E-04
  5.915398201E-02  5.673064055E-04
  6.017099685E-02  5.673018462E-04
  6.119494001E-02  5.673033976E-04
  6.222641605E-02  5.673031544E-04
  6.326606219E-02  5.673030727E-04
  6.431293703E-02  5.673031510E-04
  6.536688197E-02  5.673031201E-04
  6.642812502E-02  5.673031266E-04
  6.749804509E-02  5.673031273E-04
  6.857556129E-02  5.673031260E-04
  6.966040831E-02  5.673031266E-04
  7.075274986E-02  5.673031265E-04
  7.185358115E-02  5.673031265E-04
  7.296251855E-02  5.673031265E-04
  7.407904082E-02  5.673031265E-04
  7.520324461E-02  5.673031265E-04
  7.633589659E-02  5.673031265E-04
  7.747727533E-02  5.673031265E-04
  7.862648043E-02  5.673031265E-04
  7.978349882E-02  5.673031265E-04
  8.094882303E-02  5.673031265E-04
  8.212354104E-02  5.673031265E-04
  8.330636045E-02  5.673031265E-04
  8.449720083E-02  5.673031265E-04
  8.569633533E-02  5.673031265E-04
  8.690513802E-02  5.673031265E-04
  8.812257959E-02  5.673031265E-04
  8.934824334E-02  5.673031265E-04
  9.058229575E-02  5.673031265E-04
  9.182599887E-02  5.673031265E-04
  9.307893571E-02  5.673031265E-04
  9.434049060E-02  5.673031265E-04
  9.561067241E-02  5.673031265E-04
  9.689011386E-02  5.673031265E-04
  9.817971476E-02  5.673031265E-04
  9.947816269E-02  5.673031265E-04
  1.007853720E-01  5.673031265E-04
  1.021017976E-01  5.673031265E-04
  1.034289947E-01  5.673031265E-04
  1.047654168E-01  5.673031265E-04
  1.061108795E-01  5.673031265E-04
  1.074655761E-01  5.673031265E-04
  1.088311849E-01  5.673031265E-04
  1.102066275E-01  5.673031265E-04
  1.115914489E-01  5.673031265E-04
  1.129857662E-01  5.673031265E-04
  1.143907156E-01  5.673031265E-04
  1.158063594E-01  5.673031265E-04
  1.172316335E-01  5.673031265E-04
  1.186665502E-01  5.673031265E-04
  1.201120097E-01  5.673031265E-04
  1.215690536E-01  5.673031265E-04
  1.230360380E-01  5.673031265E-04
  1.245132801E-01  5.673031265E-04
  1.259996072E-01  5.673031265E-04
  1.274857909E-01  5.673031265E-04
  1.289629647E-01  5.673031265E-04
  1.304299702E-01  5.673031265E-04
  1.318870141E-01  5.673031265E-04
  1.333324740E-01  5.673031265E-04
  1.347673872E-01  5.673031265E-04
  1.361927040E-01  5.673031265E-04
  1.376083925E-01  5.673031265E-04
  1.390132719E-01  5.673031265E-04
  1.404075595E-01  5.673031265E-04
  1.417923899E-01  5.673031265E-04
  1.431678387E-01  5.673031265E-04
  1.445334402E-01  5.673031265E-04
  1.458881465E-01  5.673031265E-04
  1.472335917E-01  5.673031265E-04
  1.485700543E-01  5.673031265E-04
  1.498973291E-01  5.673031265E-04
  1.512136604E-01  5.673031265E-04
  1.525209066E-01  5.673031265E-04
  1.538193792E-01  5.673031265E-04
  1.551089194E-01  5.673031265E-04
  1.563884378E-01  5.673031265E-04
  1.576585565E-01  5.673031265E-04
  1.589201158E-01  5.673031265E-04
  1.601731152E-01  5.673031265E-04
  1.614167261E-01  5.673031265E-04
  1.626508361E-01  5.673031265E-04
  1.638764969E-01  5.673031265E-04
  1.650939046E-01  5.673031265E-04
  1.663027771E-01  5.673031265E-04
  1.675018412E-01  5.673031265E-04
  1.686927069E-01  5.673031265E-04
  1.698755867E-01  5.673031265E-04
  1.710502860E-01  5.673031265E-04
  1.722156215E-01  5.673031265E-04
  1.733726550E-01  5.673031265E-04
  1.745218130E-01  5.673031265E-04
  1.756631241E-01  5.673031265E-04
  1.767957730E-01  5.673031265E-04
  1.779200438E-01  5.673031265E-04
  1.790366037E-01  5.673031265E-04
  1.801455339E-01  5.673031265E-04
  1.812463608E-01  5.673031265E-04
  1.823386396E-01  5.673031266E-04
  1.834234583E-01  5.673031260E-04
  1.845009828E-01  5.673031273E-04
  1.855709046E-01  5.673031266E-04
  1.866322029E-01  5.673031201E-04
  1.876861852E-01  5.673031510E-04
  1.887330283E-01  5.673030728E-04
  1.897726021E-01  5.673031544E-04
  1.908040751E-01  5.673033970E-04
  1.918280956E-01  5.673018493E-04
  1.928451047E-01  5.673063976E-04
  1.938550898E-01  5.672996393E-04
  1.948572946E-01  5.672929365E-04
  1.958515306E-01  5.673671744E-04
  1.968374159E-01  5.671135274E-04
  1.978123600E-01  5.676715013E-04
  1.987738353E-01  5.807669103E-04
  1.997223296E-01  6.313605002E-04
  2.006618742E-01  7.206308723E-04
  2.015944804E-01  8.459256422E-04
  2.025202388E-01  1.007133901E-03
  2.034394622E-01  1.203122109E-03
  2.043523722E-01  1.433062644E-03
  2.052588595E-01  1.696014804E-03
  2.061589982E-01  1.990990201E-03
  2.070533068E-01  2.317528291E-03
  2.079415894E-01  2.674693612E-03
  2.088236534E-01  3.061414452E-03
  2.096996702E-01  3.476769743E-03
  2.105700588E-01  3.920482919E-03
  2.114349040E-01  4.392068713E-03
  2.122943488E-01  4.889750754E-03
  2.131488180E-01  5.411379725E-03
  2.139987984E-01  5.954344709E-03
  2.148445229E-01  6.516271714E-03
  2.156858254E-01  7.093510158E-03
  2.165226975E-01  7.683595412E-03
  2.173551727E-01  8.284217734E-03
  2.181830956E-01  8.892797499E-03
  2.190065409E-01  9.506814578E-03
  2.198254418E-01  1.012428090E-02
  2.206396567E-01  1.074327085E-02
  2.214491015E-01  1.136083909E-02
  2.222533205E-01  1.197556443E-02
  2.230520036E-01  1.258789678E-02
  2.238449161E-01  1.319823596E-02
  2.246318208E-01  1.380661468E-02
  2.254127387E-01  1.441351881E-02
  2.261878250E-01  1.502022554E-02
  2.269571855E-01  1.562713078E-02
  2.277207710E-01  1.623450996E-02
  2.284787554E-01  1.684231003E-02
  2.292311020E-01  1.745165822E-02
  2.299779375E-01  1.806300218E-02
  2.307194242E-01  1.867674571E-02
  2.314559435E-01  1.929266418E-02
  2.321878575E-01  1.991107805E-02
  2.329160011E-01  2.052962242E-02
  2.336407582E-01  2.114522219E-02
  2.343622889E-01  2.175309797E-02
  2.350805493E-01  2.234963006E-02
  2.357956436E-01  2.293288826E-02
  2.365075905E-01  2.350018120E-02
  2.372158769E-01  2.404728118E-02
  2.379210315E-01  2.456952703E-02
  2.386262156E-01  2.506964843E-02
  2.393335852E-01  2.554490935E-02
  2.400427024E-01  2.599144508E-02
  2.407526462E-01  2.640208755E-02
  2.414640670E-01  2.677685309E-02
  2.421775290E-01  2.711200684E-02
  2.428922135E-01  2.740341200E-02
  2.436052653E-01  2.764694124E-02
  2.443168792E-01  2.784759309E-02
  2.450268897E-01  2.800928802E-02
  2.457346886E-01  2.813589321E-02
  2.464397902E-01  2.823139015E-02
  2.471425347E-01  2.829993720E-02
  2.478433658E-01  2.834690634E-02
  2.485420917E-01  2.837309429E-02
  2.492378551E-01  2.838028285E-02
  2.499304056E-01  2.838064303E-02
  2.506209248E-01  2.838031474E-02
  2.513106084E-01  2.838049325E-02
  2.520000041E-01  2.838042766E-02
 -1.047740006E-09  2.858019679E-02
  6.900141398E-04  2.858026216E-02
  1.380437221E-03  2.858008425E-02
  2.072162376E-03  2.858041145E-02
  2.766911655E-03  2.858005246E-02
  3.466262942E-03  2.857288911E-02
  4.169803448E-03  2.854679467E-02
  4.876497908E-03  2.849998780E-02
  5.586192993E-03  2.843168818E-02
  6.299348504E-03  2.833653210E-02
  7.016169863E-03  2.821028737E-02
  7.736238122E-03  2.804917912E-02
  8.459090097E-03  2.784929479E-02
  9.184281318E-03  2.760653579E-02
  9.910623815E-03  2.731613462E-02
  1.063584021E-02  2.698224019E-02
  1.135881449E-02  2.660881779E-02
  1.207984412E-02  2.619954398E-02
  1.279856818E-02  2.575466393E-02
  1.351500097E-02  2.528105585E-02
  1.422870030E-02  2.478262738E-02
  1.494198050E-02  2.426224103E-02
  1.565688942E-02  2.371708024E-02
  1.637444176E-02  2.315171465E-02
  1.709462253E-02  2.257049795E-02
  1.781743082E-02  2.197615484E-02
  1.854233081E-02  2.137042178E-02
  1.926936959E-02  2.075699822E-02
  1.999904245E-02  2.014063014E-02
  2.073178652E-02  1.952439394E-02
  2.146873326E-02  1.891065213E-02
  2.221037539E-02  1.829907632E-02
  2.295728942E-02  1.768988926E-02
  2.370972169E-02  1.708269104E-02
  2.446787054E-02  1.647703554E-02
  2.523154060E-02  1.587179888E-02
  2.600106324E-02  1.526702755E-02
  2.677656218E-02  1.466247021E-02
  2.755810774E-02  1.405770894E-02
  2.834551370E-02  1.345147338E-02
  2.913889462E-02  1.284328262E-02
  2.993822437E-02  1.223311897E-02
  3.074310566E-02  1.162055736E-02
  3.155278087E-02  1.100516675E-02
  3.236677913E-02  1.038837147E-02
  3.318500747E-02  9.773091759E-03
  3.400709724E-02  9.161236616E-03
  3.483289992E-02  8.554803046E-03
  3.566245916E-02  7.956305771E-03
  3.649568013E-02  7.368301827E-03
  3.733251164E-02  6.793108210E-03
  3.817288488E-02  6.233169043E-03
  3.901690245E-02  5.692111081E-03
  3.986454282E-02  5.172334051E-03
  4.071634981E-02  4.676417181E-03
  4.157295892E-02  4.206503402E-03
  4.243479914E-02  3.764359128E-03
  4.330204860E-02  3.350468829E-03
  4.417495337E-02  2.965105426E-03
  4.505366439E-02  2.609206164E-03