TITLE     = "Periodic hill 257x129"
VARIABLES = "x corner"
"y corner"
ZONE T="I257_J129_g3.60_a0.5"
 I=257, J=129, K=1,F=POINT
DT=(DOUBLE DOUBLE )
 -1.164150026000000E-10  2.800001038888889E-02
  6.890608665381657E-04  2.800001038888889E-02
  1.378127720899811E-03  2.800001038888890E-02
  2.067182263832826E-03  2.800001038888889E-02
  2.756257931783828E-03  2.800001038888889E-02
  3.445354214445139E-03  2.799354482118294E-02
  4.134577991301810E-03  2.796566790684130E-02
  4.823829301477135E-03  2.791918941718583E-02
  5.512844455272942E-03  2.784996431526709E-02
  6.201916403749348E-03  2.775380129915671E-02
  6.891920539719350E-03  2.762633927726312E-02
  7.581750037872790E-03  2.746354756891509E-02
  8.270541206929001E-03  2.726154994583979E-02
  8.958373407079610E-03  2.701633755676835E-02
  9.649749933310959E-03  2.672297107037770E-02
  1.033949937910295E-02  2.638561062809919E-02
  1.102755271213784E-02  2.600831923873968E-02
  1.171425452209834E-02  2.559486166059456E-02
  1.240517434488683E-02  2.514536867427059E-02
  1.309479746879441E-02  2.466693483219661E-02
  1.378316558324389E-02  2.416340508410410E-02
  1.447152093405515E-02  2.363761550011125E-02
  1.516748195013731E-02  2.308681535655628E-02
  1.586861091535469E-02  2.251572836975941E-02
  1.657355398161422E-02  2.192853398238488E-02
  1.728287243854303E-02  2.132798901635962E-02
  1.799814532827488E-02  2.071607315683609E-02
  1.871929002487266E-02  2.009631469218185E-02
  1.944479934837242E-02  1.947363934564819E-02
  2.017552048100182E-02  1.885109519975687E-02
  2.091177450153682E-02  1.823100245729551E-02
  2.165376369967797E-02  1.761317534734019E-02
  2.240094493807077E-02  1.699771079340628E-02
  2.315331004955248E-02  1.638423170784693E-02
  2.391081266774866E-02  1.577237062264646E-02
  2.467440673776063E-02  1.516093992780045E-02
  2.544349940697530E-02  1.454997770569454E-02
  2.621785874565360E-02  1.393919997651097E-02
  2.699739670934983E-02  1.332818230515955E-02
  2.778304518545065E-02  1.271568247763726E-02
  2.857472818560507E-02  1.210122740178168E-02
  2.937168878320758E-02  1.148484134046079E-02
  3.017380341449044E-02  1.086603203210215E-02
  3.098195513631800E-02  1.024427965216763E-02
  3.179656565108835E-02  9.621100066581754E-03
  3.261653685088214E-02  8.999466029180114E-03
  3.344223714699585E-02  8.381311896071622E-03
  3.427406600951244E-02  7.768652169261343E-03
  3.511187223870141E-02  7.164010386215348E-03
  3.595550921651278E-02  6.569993968055778E-03
  3.680541981527534E-02  5.988898800921160E-03
  3.766202597279884E-02  5.423175043653750E-03
  3.852393270080013E-02  4.876552721063755E-03
  3.939188052503488E-02  4.351447694840450E-03
  4.026669839369609E-02  3.850407761430646E-03
  4.114855514008439E-02  3.375688295849735E-03
  4.203602158769573E-02  2.928963099443028E-03
  4.292933219560444E-02  2.510829825280659E-03
  4.382970006271306E-02  2.121522160701604E-03
  4.473701802869871E-02  1.761957624829523E-03
  4.565065052746663E-02  1.433229938291888E-03
  4.657024898850262E-02  1.136262539137699E-03
  4.749688933648349E-02  8.715563271478859E-04
  4.843036152988033E-02  6.400789090879322E-04
  4.937040061000000E-02  4.427880663727662E-04
  5.031728375294509E-02  2.805296107383504E-04
  5.127119490700928E-02  1.542141818422372E-04
  5.223180311958923E-02  6.483096894603982E-05
  5.319863796283321E-02  1.333312715516045E-05
  5.417342609822048E-02  0.000000000000000E+00
  5.515540481691267E-02  1.734723475976807E-18
  5.614371053245451E-02  0.000000000000000E+00
  5.713847465694855E-02  1.734723475976807E-18
  5.814098517303623E-02  0.000000000000000E+00
  5.915169771963789E-02  1.734723475976807E-18
  6.016896618197499E-02  0.000000000000000E+00
  6.119284310404143E-02  1.734723475976807E-18
  6.222406425026444E-02  0.000000000000000E+00
  6.326433818896335E-02  1.734723475976807E-18
  6.431145488416706E-02  0.000000000000000E+00
  6.536540016307786E-02  1.734723475976807E-18
  6.642614642826568E-02  0.000000000000000E+00
  6.749672186398738E-02  1.734723475976807E-18
  6.857451331004141E-02  0.000000000000000E+00
  6.965934951311245E-02  1.734723475976807E-18
  7.075126190172014E-02  0.000000000000000E+00
  7.185238413656354E-02  1.734723475976807E-18
  7.296172866828053E-02  0.000000000000000E+00
  7.407832238625023E-02  1.734723475976807E-18
  7.520222524296866E-02  0.000000000000000E+00
  7.633481267468753E-02  1.734723475976807E-18
  7.747667597234380E-02  0.000000000000000E+00
  7.862600079125003E-02  1.734723475976807E-18
  7.978285523312502E-02  0.000000000000000E+00
  8.094775210875005E-02  1.734723475976807E-18
  8.212307770421878E-02  0.000000000000000E+00
  8.330610022000001E-02  0.000000000000000E+00
  8.449685294390626E-02 -1.734723475976807E-18
  8.569536590500000E-02  0.000000000000000E+00
  8.690474531750000E-02 -1.734723475976807E-18
  8.812245214312500E-02  0.000000000000000E+00
  8.934808731875002E-02 -1.734723475976807E-18
  9.058170905562500E-02  0.000000000000000E+00
  9.182554274156253E-02 -1.734723475976807E-18
  9.307893645250000E-02  0.000000000000000E+00
  9.434053767687500E-02 -1.734723475976807E-18
  9.561037575187498E-02  0.000000000000000E+00
  9.688966197906251E-02 -1.734723475976807E-18
  9.817980742000000E-02  0.000000000000000E+00
  9.947839134609372E-02 -1.734723475976807E-18
  1.007854447281250E-01  0.000000000000000E+00
  1.021012502265625E-01 -1.734723475976807E-18
  1.034291983000000E-01  0.000000000000000E+00
  1.047658088265625E-01 -1.734723475976807E-18
  1.061111654000001E-01  0.000000000000000E+00
  1.074653357812500E-01  0.000000000000000E+00
  1.088313623750000E-01  0.000000000000000E+00
  1.102071623453126E-01  0.000000000000000E+00
  1.115919740218750E-01  0.000000000000000E+00
  1.129858255937500E-01  0.000000000000000E+00
  1.143908984500000E-01  0.000000000000000E+00
  1.158069922343751E-01  0.000000000000000E+00
  1.172323464281250E-01  0.000000000000000E+00
  1.186670148968750E-01  0.000000000000000E+00
  1.201121322375000E-01  0.000000000000000E+00
  1.215697649218751E-01  0.000000000000000E+00
  1.230369478156250E-01  0.000000000000000E+00
  1.245137179437500E-01  0.000000000000000E+00
  1.260001063000001E-01  0.000000000000000E+00
  1.274864091359375E-01  0.000000000000000E+00
  1.289631491531250E-01  0.000000000000000E+00
  1.304303307750000E-01  0.000000000000000E+00
  1.318879686625000E-01  0.000000000000000E+00
  1.333330860031250E-01  0.000000000000000E+00
  1.347677544718750E-01  0.000000000000000E+00
  1.361931434531249E-01  0.000000000000000E+00
  1.376092880750000E-01  0.000000000000000E+00
  1.390142924843749E-01  0.000000000000000E+00
  1.404081294218749E-01  0.000000000000000E+00
  1.417929385968751E-01  0.000000000000000E+00
  1.431687400125000E-01  0.000000000000000E+00
  1.445347722718750E-01  0.000000000000000E+00
  1.458889376093749E-01  0.000000000000000E+00
  1.472342884890624E-01 -3.469446951953614E-18
  1.485708989250000E-01  0.000000000000000E+00
  1.498988580562500E-01  0.000000000000000E+00
  1.512146578125000E-01  0.000000000000000E+00
  1.525217136390625E-01 -3.469446951953614E-18
  1.538202986125000E-01  0.000000000000000E+00
  1.551104383281250E-01  0.000000000000000E+00
  1.563897188437501E-01  0.000000000000000E+00
  1.576595557531251E-01 -3.469446951953614E-18
  1.589211597750000E-01  0.000000000000000E+00
  1.601745581484375E-01  0.000000000000000E+00
  1.614183918343751E-01  0.000000000000000E+00
  1.626520135578125E-01 -3.469446951953614E-18
  1.638776520124999E-01  0.000000000000000E+00
  1.650953630625001E-01  0.000000000000000E+00
  1.663047424750000E-01  0.000000000000000E+00
  1.675032554140625E-01 -3.469446951953614E-18
  1.686940044000000E-01  0.000000000000000E+00
  1.698770508984375E-01  0.000000000000000E+00
  1.710524498531251E-01  0.000000000000000E+00
  1.722172669046875E-01  0.000000000000000E+00
  1.733740959500000E-01  3.469446951953614E-18
  1.745234199453125E-01  0.000000000000000E+00
  1.756652882687501E-01  0.000000000000000E+00
  1.767978756468751E-01  0.000000000000000E+00
  1.779217738374997E-01  3.469446951953614E-18
  1.790383677031258E-01  0.000000000000000E+00
  1.801477168124991E-01  0.000000000000000E+00
  1.812488389937486E-01  0.000000000000000E+00
  1.823407514250126E-01  3.469446951953614E-18
  1.834255876046461E-01  0.000000000000000E+00
  1.845033773750752E-01  0.000000000000000E+00
  1.855739471375155E-01  0.000000000000000E+00
  1.866347715494215E-01  3.469446951953614E-18
  1.876886929569289E-01  0.000000000000000E+00
  1.887357616607190E-01  0.000000000000000E+00
  1.897760328916133E-01  0.000000000000000E+00
  1.908072540684850E-01  3.469446951953614E-18
  1.918311353222743E-01  0.000000000000000E+00
  1.928484056584935E-01  0.000000000000000E+00
  1.938591263451899E-01  0.000000000000000E+00
  1.948617109807060E-01  3.469446951953614E-18
  1.958564275582573E-01  0.000000000000000E+00
  1.968446982938572E-01  0.000000000000000E+00
  1.978266748723517E-01  0.000000000000000E+00
  1.988014629936156E-01  1.333337514401386E-05
  1.997682926130916E-01  6.483113248011499E-05
  2.007289019492082E-01  1.542145605139891E-04
  2.016828172328197E-01  2.805307484684758E-04
  2.026297003000000E-01  4.427894795463114E-04
  2.035697417226413E-01  6.400811425648807E-04
  2.045032657378108E-01  8.715727620694884E-04
  2.054299215463233E-01  1.136285987951145E-03
  2.063494541212315E-01  1.433233745014625E-03
  2.072630896807121E-01  1.761962997892882E-03
  2.081704061215008E-01  2.121527417446808E-03
  2.090708082696727E-01  2.510850974782344E-03
  2.099641622544713E-01  2.929006987882218E-03
  2.108515557264967E-01  3.375697342473796E-03
  2.117334041059241E-01  3.850412762470393E-03
  2.126082258700813E-01  4.351455295224162E-03
  2.134761734585913E-01  4.876560571399242E-03
  2.143380752988860E-01  5.423180078282956E-03
  2.151946846619014E-01  5.988906183860717E-03
  2.160445924509247E-01  6.569999639536923E-03
  2.168882539641714E-01  7.164033715779457E-03
  2.177261284271685E-01  7.768725810023372E-03
  2.185579663107488E-01  8.381393598656462E-03
  2.193836664197258E-01  8.999548776651215E-03
  2.202035987256651E-01  9.621154074025286E-03
  2.210181409201818E-01  1.024428161453441E-02
  2.218263002725049E-01  1.086603988314910E-02
  2.226284202426045E-01  1.148485333135965E-02
  2.234253736862143E-01  1.210123388703901E-02
  2.242170718177909E-01  1.271570075733205E-02
  2.250027899220925E-01  1.332825509642325E-02
  2.257822698444764E-01  1.393922756330669E-02
  2.265565900009437E-01  1.454997446697930E-02
  2.273256891257897E-01  1.516094181261419E-02
  2.280892881264339E-01  1.577237648808329E-02
  2.288467894784568E-01  1.638423659935205E-02
  2.295991540482805E-01  1.699771528922980E-02
  2.303463348029427E-01  1.761317948996065E-02
  2.310883207762397E-01  1.823100394591734E-02
  2.318245788737389E-01  1.885110015998189E-02
  2.325553589984916E-01  1.947369485301925E-02
  2.332809152171642E-01  2.009641075538788E-02
  2.340020469417079E-01  2.071615792966070E-02
  2.347172459033045E-01  2.132801017867872E-02
  2.354265355666645E-01  2.192853066056375E-02
  2.361315290804586E-01  2.251576670668650E-02
  2.368327104176267E-01  2.308689481891834E-02
  2.375285906575246E-01  2.363762958140661E-02
  2.382169267584371E-01  2.416340421706233E-02
  2.389053139394143E-01  2.466694761034964E-02
  2.395949317746087E-01  2.514537716828780E-02
  2.402858484331251E-01  2.559486759047510E-02
  2.409725545859309E-01  2.600832718832845E-02
  2.416606113959544E-01  2.638561960523041E-02
  2.423503467643665E-01  2.672297253380447E-02
  2.430417315018528E-01  2.701634200747912E-02
  2.437295686397931E-01  2.726155524049178E-02
  2.444183552422799E-01  2.746355067460807E-02
  2.451081814052906E-01  2.762634104521816E-02
  2.457981912050907E-01  2.775380357229632E-02
  2.464872626942075E-01  2.784996593958442E-02
  2.471762766582398E-01  2.791919045065771E-02
  2.478655288966754E-01  2.796566861547065E-02
  2.485547527744696E-01  2.799354521198540E-02
  2.492438494989784E-01  2.800001038888889E-02
  2.499329148785266E-01  2.800001038888889E-02
  2.506219651912148E-01  2.800001038888889E-02
  2.513110322908341E-01  2.800001038888890E-02
  2.520000935000000E-01  2.800001038888889E-02
 -1.025224079613852E-09  2.809006929267261E-02
  6.890707310253621E-04  2.809006929267261E-02
  1.378182644036987E-03  2.809006929267262E-02
  2.067473758796665E-03  2.809006929267261E-02
  2.757295727523555E-03  2.809006929267262E-02
  3.447977836544390E-03  2.808361393900196E-02
  4.139472018480505E-03  2.805578106345163E-02
  4.831510115449394E-03  2.800937599858347E-02
  5.523824773275851E-03  2.794026025560522E-02
  6.216778466455963E-03  2.784424915383321E-02
  6.911071840646061E-03  2.771698849114723E-02
  7.605788862557725E-03  2.755445395437791E-02
  8.300164130936876E-03  2.735277543875685E-02
  8.994267610327815E-03  2.710795042603189E-02
  9.691239165414299E-03  2.681504738783042E-02
  1.038679128447502E-02  2.647821989356514E-02
  1.108056055200154E-02  2.610152453347040E-02
  1.177299386287418E-02  2.568872011843280E-02
  1.246812029461676E-02  2.523993722245733E-02
  1.316201849293350E-02  2.476225919029360E-02
  1.385444156069904E-02  2.425952489758121E-02
  1.454699518240628E-02  2.373456593413261E-02
  1.524582147134779E-02  2.318463592176497E-02
  1.594943295017996E-02  2.261445111446770E-02
  1.665678484451411E-02  2.202818435239513E-02
  1.736828512522666E-02  2.142858810236142E-02
  1.808499029873607E-02  2.081763892209465E-02
  1.880692838193298E-02  2.019885952611899E-02
  1.953299548974501E-02  1.957716785623274E-02
  2.026383217509070E-02  1.895560717972350E-02
  2.100005379980411E-02  1.833649403401891E-02
  2.174187907601878E-02  1.771964294166824E-02
  2.248891785247674E-02  1.710515067307113E-02
  2.324120399309926E-02  1.649264073628810E-02
  2.399880666173695E-02  1.588174624381418E-02
  2.476230169787234E-02  1.527128146178193E-02
  2.553146566269727E-02  1.466128441241600E-02
  2.630604256956388E-02  1.405147156451817E-02
  2.708592941974430E-02  1.344141915350315E-02
  2.787185438000979E-02  1.282988692776600E-02
  2.866383344352414E-02  1.221640254251567E-02
  2.946125238979335E-02  1.160099022229066E-02
  3.026393022146551E-02  1.098315848317291E-02
  3.107242593997934E-02  1.036238832182150E-02
  3.188698338068072E-02  9.740193209458950E-03
  3.270676526118903E-02  9.119541203687805E-03
  3.353195123266459E-02  8.502363604801557E-03
  3.436284810648996E-02  7.890671732378682E-03
  3.519936751784851E-02  7.286985137305585E-03
  3.604139476623959E-02  6.693907121608830E-03
  3.688925067279921E-02  6.113729944481387E-03
  3.774319478324156E-02  5.548899894106350E-03
  3.860224082145335E-02  5.003141102755671E-03
  3.946691001503395E-02  4.478865615640681E-03
  4.033793805505814E-02  3.978617204305194E-03
  4.121561942089285E-02  3.504647680816838E-03
  4.209899166702408E-02  3.058628202319088E-03
  4.298812071705795E-02  2.641155477734580E-03
  4.388405784913081E-02  2.252462825232742E-03
  4.478679606965058E-02  1.893466314478634E-03
  4.569575715390081E-02  1.565257938285313E-03
  4.661069586932638E-02  1.268759675892705E-03
  4.753247185556324E-02  1.004471635781075E-03
  4.846093773185775E-02  7.733598961309312E-04
  4.939590448972054E-02  5.763807252939066E-04
  5.033767475341679E-02  4.143785988277173E-04
  5.128637906249516E-02  2.882627177992115E-04
  5.224173433407880E-02  1.990207087898964E-04
  5.320396715611394E-02  1.476042211503314E-04
  5.417550342951428E-02  1.342921571156116E-04
  5.515591386488824E-02  1.342921571156133E-04
  5.614382786741402E-02  1.342921571156116E-04
  5.713862312558135E-02  1.342921571156133E-04
  5.814115202105494E-02  1.342921571156116E-04
  5.915172777658659E-02  1.342921571156133E-04
  6.016901027983634E-02  1.342921571156115E-04
  6.119300120061021E-02  1.342921571156133E-04
  6.222434301614842E-02  1.342921571156115E-04
  6.326444293058713E-02  1.342921571156133E-04
  6.431152562919726E-02  1.342921571156116E-04
  6.536551019869931E-02  1.342921571156133E-04
  6.642645842124163E-02  1.342921571156115E-04
  6.749684895274118E-02  1.342921571156133E-04
  6.857458593845832E-02  1.342921571156116E-04
  6.965944979004511E-02  1.342921571156133E-04
  7.075150990414991E-02  1.342921571156116E-04
  7.185252481603580E-02  1.342921571156133E-04
  7.296172698236017E-02  1.342921571156116E-04
  7.407830371772313E-02  1.342921571156133E-04
  7.520232441432570E-02  1.342921571156116E-04
  7.633495211643514E-02  1.342921571156133E-04
  7.747667046818767E-02  1.342921571156115E-04
  7.862597127135561E-02  1.342921571156133E-04
  7.978289584687702E-02  1.342921571156116E-04
  8.094794927616138E-02  1.342921571156133E-04
  8.212308758852310E-02  1.342921571156116E-04
  8.330606981843319E-02  1.342921571156116E-04
  8.449685590261108E-02  1.342921571156099E-04
  8.569556068629347E-02  1.342921571156116E-04
  8.690478836124696E-02  1.342921571156099E-04
  8.812239884459687E-02  1.342921571156116E-04
  8.934802525402681E-02  1.342921571156098E-04
  9.058179945007457E-02  1.342921571156116E-04
  9.182559044281578E-02  1.342921571156098E-04
  9.307887085798297E-02  1.342921571156116E-04
  9.434047027552073E-02  1.342921571156098E-04
  9.561040831660873E-02  1.342921571156115E-04
  9.688976604563332E-02  1.342921571156098E-04
  9.817975277904585E-02  1.342921571156115E-04
  9.947831268738655E-02  1.342921571156098E-04
  1.007854238804579E-01  1.342921571156115E-04
  1.021014126765667E-01  1.342921571156098E-04
  1.034291222982826E-01  1.342921571156116E-04
  1.047656759046010E-01  1.342921571156099E-04
  1.061110704170766E-01  1.342921571156116E-04
  1.074654163996621E-01  1.342921571156116E-04
  1.088313184792353E-01  1.342921571156116E-04
  1.102070427882281E-01  1.342921571156116E-04
  1.115918425437253E-01  1.342921571156116E-04
  1.129857904522435E-01  1.342921571156115E-04
  1.143908558087413E-01  1.342921571156115E-04
  1.158068345620616E-01  1.342921571156115E-04
  1.172321498463854E-01  1.342921571156115E-04
  1.186668702905237E-01  1.342921571156116E-04
  1.201120904157284E-01  1.342921571156116E-04
  1.215695508118558E-01  1.342921571156116E-04
  1.230366941282944E-01  1.342921571156116E-04
  1.245136025485044E-01  1.342921571156116E-04
  1.259999514786190E-01  1.342921571156116E-04
  1.274862638230706E-01  1.342921571156116E-04
  1.289631372938062E-01  1.342921571156116E-04
  1.304302479042831E-01  1.342921571156116E-04
  1.318877128409116E-01  1.342921571156116E-04
  1.333329303507872E-01  1.342921571156116E-04
  1.347676788946453E-01  1.342921571156115E-04
  1.361930614934453E-01  1.342921571156115E-04
  1.376090827849202E-01  1.342921571156115E-04
  1.390140670486941E-01  1.342921571156115E-04
  1.404080488972831E-01  1.342921571156116E-04
  1.417928446346891E-01  1.342921571156116E-04
  1.431685427020824E-01  1.342921571156116E-04
  1.445344864310429E-01  1.342921571156116E-04
  1.458888037797370E-01  1.342921571156116E-04
  1.472341676245607E-01  1.342921571156081E-04
  1.485707428873476E-01  1.342921571156116E-04
  1.498984985934023E-01  1.342921571156115E-04
  1.512144849970499E-01  1.342921571156115E-04
  1.525215881767427E-01  1.342921571156081E-04
  1.538201538842682E-01  1.342921571156115E-04
  1.551101346334686E-01  1.342921571156115E-04
  1.563894492554394E-01  1.342921571156115E-04
  1.576593742459522E-01  1.342921571156081E-04
  1.589209869222461E-01  1.342921571156116E-04
  1.601742610625850E-01  1.342921571156116E-04
  1.614180122882818E-01  1.342921571156116E-04
  1.626517742640458E-01  1.342921571156081E-04
  1.638774294693808E-01  1.342921571156116E-04
  1.650950681670308E-01  1.342921571156116E-04
  1.663042930184684E-01  1.342921571156116E-04
  1.675029976432031E-01  1.342921571156081E-04
  1.686937803131362E-01  1.342921571156116E-04
  1.698767910678834E-01  1.342921571156116E-04
  1.710520005269863E-01  1.342921571156115E-04
  1.722169786350048E-01  1.342921571156115E-04
  1.733738829148407E-01  1.342921571156150E-04
  1.745231825286583E-01  1.342921571156115E-04
  1.756648972405986E-01  1.342921571156115E-04
  1.767975280024317E-01  1.342921571156116E-04
  1.779215152884899E-01  1.342921571156150E-04
  1.790380919048935E-01  1.342921571156116E-04
  1.801473469656999E-01  1.342921571156116E-04
  1.812484000247800E-01  1.342921571156116E-04
  1.823404556817768E-01  1.342921571156151E-04
  1.834253133818187E-01  1.342921571156116E-04
  1.845030548395827E-01  1.342921571156116E-04
  1.855734503430989E-01  1.342921571156115E-04
  1.866344733425115E-01  1.342921571156150E-04
  1.876884312891762E-01  1.342921571156115E-04
  1.887354441377435E-01  1.342921571156115E-04
  1.897755158665476E-01  1.342921571156115E-04
  1.908068592979217E-01  1.342921571156150E-04
  1.918308410769926E-01  1.342921571156115E-04
  1.928481210002503E-01  1.342921571156116E-04
  1.938587076938458E-01  1.342921571156116E-04
  1.948612732106224E-01  1.342921571156150E-04
  1.958560446158444E-01  1.342921571156116E-04
  1.968439425987127E-01  1.342921571156116E-04
  1.978243407966665E-01  1.342921571156116E-04
  1.987958802189385E-01  1.476044687474223E-04
  1.997581565434807E-01  1.990208720656272E-04
  2.007135341367444E-01  2.882630958727535E-04
  2.016622044509983E-01  4.143797347605038E-04
  2.026039308925307E-01  5.763821362349788E-04
  2.035389263744004E-01  7.733621260795256E-04
  2.044674639624560E-01  1.004488044739471E-03
  2.053892406045219E-01  1.268783087662690E-03
  2.063041052972231E-01  1.565261738994348E-03
  2.072130637476060E-01  1.893471679053851E-03
  2.081157608427061E-01  2.252468073673559E-03
  2.090117344681915E-01  2.641176593825161E-03
  2.099009278200542E-01  3.058672021425144E-03
  2.107841903873617E-01  3.504656713149419E-03
  2.116618775539995E-01  3.978622197444506E-03
  2.125329514326625E-01  4.478873204017622E-03
  2.133976328420260E-01  5.003148940689525E-03
  2.142566781956627E-01  5.548904920782059E-03
  2.151106174211294E-01  6.113737315757683E-03
  2.159584642856207E-01  6.693912784130404E-03
  2.168005195702936E-01  7.287008430014618E-03
  2.176371033471045E-01  7.890745256806093E-03
  2.184679992942130E-01  8.502445178316047E-03
  2.192931900986785E-01  9.119623820437888E-03
  2.201129463012290E-01  9.740247131583763E-03
  2.209274416284155E-01  1.036239028108822E-02
  2.217359505747328E-01  1.098316632181711E-02
  2.225386772781186E-01  1.160100219424680E-02
  2.233360666614840E-01  1.221640901752787E-02
  2.241280321323906E-01  1.282990517858330E-02
  2.249141013997042E-01  1.344149182977423E-02
  2.256939598383649E-01  1.405149910773342E-02
  2.264684639824534E-01  1.466128117881715E-02
  2.272376279195332E-01  1.527128334361812E-02
  2.280011580742825E-01  1.588175209998504E-02
  2.287587536106510E-01  1.649264562006582E-02
  2.295110652208600E-01  1.710515516179232E-02
  2.302581377739752E-01  1.771964707774436E-02
  2.309999481292161E-01  1.833649552028908E-02
  2.317361593861898E-01  1.895561213211257E-02
  2.324670900492829E-01  1.957722327591556E-02
  2.331932103020539E-01  2.019895543756836E-02
  2.339151077888737E-01  2.081772356099867E-02
  2.346317844300618E-01  2.142860923124917E-02
  2.353432648473040E-01  2.202818103582168E-02
  2.360506789348940E-01  2.261448939083171E-02
  2.367543518209019E-01  2.318471525859569E-02
  2.374530903511501E-01  2.373457999318292E-02
  2.381456421717986E-01  2.425952403190916E-02
  2.388380868138991E-01  2.476227194826023E-02
  2.395319711459363E-01  2.523994570305604E-02
  2.402270963446896E-01  2.568872603894555E-02
  2.409195350136872E-01  2.610153247050075E-02
  2.416132797011751E-01  2.647822885651467E-02
  2.423088092001652E-01  2.681504884894533E-02
  2.430058030919258E-01  2.710795486971162E-02
  2.436999138170893E-01  2.735278072504457E-02
  2.443942789667537E-01  2.755445705516465E-02
  2.450890013667562E-01  2.771699025630933E-02
  2.457833334142248E-01  2.784425142338182E-02
  2.464763125161111E-01  2.794026187735653E-02
  2.471685819771598E-01  2.800937703042270E-02
  2.478605931069986E-01  2.805578177096151E-02
  2.485521281689116E-01  2.808361432918704E-02
  2.492428516189281E-01  2.809006929267261E-02
  2.499326203309959E-01  2.809006929267261E-02
  2.506219027309480E-01  2.809006929267261E-02
  2.513110407269725E-01  2.809006929267262E-02
  2.520000062613549E-01  2.809006929267261E-02
 -1.047740006000000E-09  2.818503843136452E-02
  6.891376074243471E-04  2.818503843136452E-02
  1.378362963641744E-03  2.818503843136453E-02
  2.067978743797850E-03  2.818503843136452E-02
  2.758649221440288E-03  2.818503843136452E-02
  3.451009339166607E-03  2.817859384862371E-02
  4.144881145498986E-03  2.815080741296887E-02
  4.839821095093975E-03  2.810447977618961E-02
  5.535562504854968E-03  2.803547935467267E-02
  6.232562268637751E-03  2.793962844998573E-02
  6.931344607384362E-03  2.781258012511099E-02
  7.631124100805819E-03  2.765031678155301E-02
  8.331251072627525E-03  2.744897477191644E-02
  9.031767502411629E-03  2.720455825625762E-02
  9.734576124105169E-03  2.691214393459060E-02
  1.043607336386627E-02  2.657587844598672E-02
  1.113573060037323E-02  2.619981161215125E-02
  1.183408603038019E-02  2.578769597229456E-02
  1.253378731119767E-02  2.533966188255541E-02
  1.323211180733928E-02  2.486278086893372E-02
  1.392872905795319E-02  2.436088540180265E-02
  1.462559836800357E-02  2.383680234639148E-02
  1.532755873304104E-02  2.328778990692267E-02
  1.603385563329216E-02  2.271855646819001E-02
  1.674367628213961E-02  2.213326790785269E-02
  1.745740688946649E-02  2.153467210016054E-02
  1.817574988560690E-02  2.092474230490235E-02
  1.889850427790548E-02  2.030699535885911E-02
  1.962513153236941E-02  1.968634099811200E-02
  2.035622693176047E-02  1.906581741217595E-02
  2.109248281739034E-02  1.844773727327411E-02
  2.183410023487007E-02  1.783191541342980E-02
  2.258104761845397E-02  1.721844844157868E-02
  2.333333293346067E-02  1.660696049396812E-02
  2.409103037527622E-02  1.599708529525474E-02
  2.485455707204993E-02  1.538763908999969E-02
  2.562374507386926E-02  1.477865983698653E-02
  2.639846506262548E-02  1.416986447809639E-02
  2.717870690530508E-02  1.356082995580653E-02
  2.796488977481983E-02  1.295031808790489E-02
  2.875719464378964E-02  1.233785731772030E-02
  2.955511689321426E-02  1.172347182937197E-02
  3.035835363764796E-02  1.110667095899588E-02
  3.116713552263113E-02  1.048693656922203E-02
  3.198157453724255E-02  9.865779606005822E-03
  3.280113643282512E-02  9.246163174666502E-03
  3.362580157775705E-02  8.630015353071485E-03
  3.445570019656947E-02  8.019344104858868E-03
  3.529082050485677E-02  7.416664776977175E-03
  3.613111158392052E-02  6.824576327774075E-03
  3.697678512983659E-02  6.245367191746918E-03
  3.782797657139876E-02  5.681479575381687E-03
  3.868406801931943E-02  5.136631397136276E-03
  3.954535752423011E-02  4.613230677660219E-03
  4.041253534805866E-02  4.113816944146639E-03
  4.128596523062438E-02  3.640638251454646E-03
  4.216500798298217E-02  3.195362968357429E-03
  4.304978669231278E-02  2.778586808152869E-03
  4.394112516385692E-02  2.390542699712801E-03
  4.483905843512563E-02  2.032145184215606E-03
  4.574313656571149E-02  1.704484432455196E-03
  4.665319137722822E-02  1.408480885324537E-03
  4.756990133449197E-02  1.144633816859549E-03
  4.849316444660078E-02  9.139076933135184E-04
  4.942285464506783E-02  7.172571874788198E-04
  5.035931307805973E-02  5.555253658831689E-04
  5.130257541926627E-02  4.296199125671744E-04
  5.225259413470205E-02  3.405268062310404E-04
  5.321024279888622E-02  2.891961083729932E-04
  5.417835425772324E-02  2.759062558723069E-04
  5.515700748910611E-02  2.759062558723087E-04
  5.614441270866569E-02  2.759062558723069E-04
  5.713915142384467E-02  2.759062558723087E-04
  5.814161986281795E-02  2.759062558723069E-04
  5.915207410600805E-02  2.759062558723087E-04
  6.016932377618562E-02  2.759062558723069E-04
  6.119334614289251E-02  2.759062558723086E-04
  6.222480127911791E-02  2.759062558723069E-04
  6.326476412877237E-02  2.759062558723087E-04
  6.431175783271986E-02  2.759062558723069E-04
  6.536571942386650E-02  2.759062558723086E-04
  6.642685039791983E-02  2.759062558723068E-04
  6.749709471057104E-02  2.759062558723086E-04
  6.857471449440639E-02  2.759062558723069E-04
  6.965954328959256E-02  2.759062558723087E-04
  7.075175496706113E-02  2.759062558723069E-04
  7.185274393115430E-02  2.759062558723087E-04
  7.296191409718471E-02  2.759062558723069E-04
  7.407846550878079E-02  2.759062558723087E-04
  7.520251074628059E-02  2.759062558723069E-04
  7.633518029343098E-02  2.759062558723086E-04
  7.747677707623161E-02  2.759062558723069E-04
  7.862605493222102E-02  2.759062558723086E-04
  7.978304367116960E-02  2.759062558723069E-04
  8.094823164794243E-02  2.759062558723087E-04
  8.212321215412875E-02  2.759062558723070E-04
  8.330609575912203E-02  2.759062558723070E-04
  8.449686011187349E-02  2.759062558723052E-04
  8.569574527036790E-02  2.759062558723069E-04
  8.690483121836121E-02  2.759062558723052E-04
  8.812240643063982E-02  2.759062558723069E-04
  8.934807209571474E-02  2.759062558723052E-04
  9.058197828900061E-02  2.759062558723069E-04
  9.182573637966364E-02  2.759062558723052E-04
  9.307884441037444E-02  2.759062558723069E-04
  9.434039660985541E-02  2.759062558723051E-04
  9.561044113837998E-02  2.759062558723069E-04
  9.688986169804430E-02  2.759062558723051E-04
  9.817970246244803E-02  2.759062558723068E-04
  9.947823797765294E-02  2.759062558723051E-04
  1.007854069745364E-01  2.759062558723068E-04
  1.021015615556859E-01  2.759062558723051E-04
  1.034290481773051E-01  2.759062558723069E-04
  1.047655424683207E-01  2.759062558723052E-04
  1.061109759648286E-01  2.759062558723069E-04
  1.074654823752408E-01  2.759062558723069E-04
  1.088312717871807E-01  2.759062558723069E-04
  1.102069214164452E-01  2.759062558723069E-04
  1.115917150615235E-01  2.759062558723069E-04
  1.129857587132310E-01  2.759062558723069E-04
  1.143908067939303E-01  2.759062558723069E-04