TITLE     = "[Mellen,Froehlich,Rodi,2000], x/h=8"
VARIABLES = "y/h"
"U/U_b"
"V/U_b"
"<uu>/U_b^2"
"<vv>/U_b^2"
"<uv>/U_b^2"
"k/U_b^2"
ZONE T="IFH, x/h=8"
 I=244, J=1, K=1, ZONETYPE=Ordered
 DATAPACKING=POINT
 DT=(SINGLE SINGLE SINGLE SINGLE SINGLE SINGLE SINGLE )
 4.568000138E-001 5.280999839E-002 4.100000113E-002 1.417999971E-003 8.324999944E-004 1.081999973E-003 1.214999985E-002
 4.674000144E-001 1.836999953E-001 1.406999975E-001 1.075999998E-002 6.082999986E-003 7.829000242E-003 9.392999858E-002
 4.779999852E-001 2.453999966E-001 1.851000041E-001 1.541000046E-002 8.899999782E-003 1.059999969E-002 1.453000009E-001
 4.885999858E-001 2.752999961E-001 2.044000030E-001 1.686999947E-002 1.018000022E-002 1.073000021E-002 1.688999981E-001
 4.991999865E-001 2.937000096E-001 2.145999968E-001 1.748999953E-002 1.102000009E-002 1.002999954E-002 1.808999926E-001
 5.098000169E-001 3.070999980E-001 2.207999974E-001 1.792999916E-002 1.171999983E-002 9.073999710E-003 1.876000017E-001
 5.203999877E-001 3.179999888E-001 2.249999940E-001 1.834000088E-002 1.238999981E-002 8.039999753E-003 1.915999949E-001
 5.310999751E-001 3.274999857E-001 2.281000018E-001 1.876999997E-002 1.305000018E-002 7.003000006E-003 1.940000057E-001
 5.417000055E-001 3.361999989E-001 2.304999977E-001 1.922000013E-002 1.369000040E-002 5.987999961E-003 1.953999996E-001
 5.522999763E-001 3.443000019E-001 2.324000001E-001 1.968000084E-002 1.432999969E-002 5.005000159E-003 1.960999966E-001
 5.629000068E-001 3.519999981E-001 2.340999991E-001 2.012999915E-002 1.496000029E-002 4.050000105E-003 1.963000000E-001
 5.734999776E-001 3.596000075E-001 2.356999964E-001 2.056000009E-002 1.558000036E-002 3.128000069E-003 1.960999966E-001
 5.841000080E-001 3.668999970E-001 2.370000035E-001 2.099999972E-002 1.620000042E-002 2.238000045E-003 1.957000047E-001
 5.946999788E-001 3.740000129E-001 2.381000072E-001 2.144999988E-002 1.679000072E-002 1.382000046E-003 1.951999962E-001
 6.053000093E-001 3.808999956E-001 2.389999926E-001 2.190000005E-002 1.737999916E-002 5.568999914E-004 1.944999993E-001
 6.158999801E-001 3.876000047E-001 2.397000045E-001 2.235000022E-002 1.796000078E-002 -2.449000021E-004 1.938000023E-001
 6.265000105E-001 3.943000138E-001 2.402999997E-001 2.281999961E-002 1.853000000E-002 -1.023999997E-003 1.931000054E-001
 6.370999813E-001 4.007999897E-001 2.407999933E-001 2.329000086E-002 1.908000000E-002 -1.781000057E-003 1.923000067E-001
 6.477000117E-001 4.072999954E-001 2.408999950E-001 2.380000055E-002 1.961999945E-002 -2.500999952E-003 1.915999949E-001
 6.582999825E-001 4.135999978E-001 2.408999950E-001 2.435000055E-002 2.015000023E-002 -3.189000068E-003 1.911000013E-001
 6.689000130E-001 4.199000001E-001 2.407999933E-001 2.493000031E-002 2.067000046E-002 -3.848999972E-003 1.905999929E-001
 6.796000004E-001 4.260999858E-001 2.406000048E-001 2.551000006E-002 2.119000070E-002 -4.474000074E-003 1.902000010E-001
 6.901999712E-001 4.322000146E-001 2.404000014E-001 2.608999982E-002 2.170000039E-002 -5.073999986E-003 1.897999942E-001
 7.008000016E-001 4.384000003E-001 2.399999946E-001 2.666999958E-002 2.219999954E-002 -5.654999986E-003 1.895000041E-001
 7.113999724E-001 4.444999993E-001 2.397000045E-001 2.723000012E-002 2.267999947E-002 -6.221000105E-003 1.893000007E-001
 7.220000029E-001 4.507000148E-001 2.391999960E-001 2.778000012E-002 2.314000018E-002 -6.779999938E-003 1.889999956E-001
 7.325999737E-001 4.569999874E-001 2.389000058E-001 2.831000090E-002 2.359000035E-002 -7.325000130E-003 1.888000071E-001
 7.432000041E-001 4.632999897E-001 2.384999990E-001 2.882999927E-002 2.401999943E-002 -7.850999944E-003 1.886000037E-001
 7.537999749E-001 4.695000052E-001 2.380000055E-001 2.934999950E-002 2.442999929E-002 -8.356000297E-003 1.885000020E-001
 7.644000053E-001 4.756999910E-001 2.373999953E-001 2.985999919E-002 2.481999993E-002 -8.839000016E-003 1.885000020E-001
 7.749999762E-001 4.817999899E-001 2.368000001E-001 3.037000075E-002 2.521000057E-002 -9.301000275E-003 1.884000003E-001
 7.856000066E-001 4.878000021E-001 2.360000014E-001 3.086999990E-002 2.556999959E-002 -9.743999690E-003 1.882999986E-001
 7.961999774E-001 4.936999977E-001 2.352000028E-001 3.136000037E-002 2.593000047E-002 -1.016999967E-002 1.882999986E-001
 8.068000078E-001 4.995999932E-001 2.344000041E-001 3.183000162E-002 2.625999972E-002 -1.059000008E-002 1.881999969E-001
 8.173999786E-001 5.055000186E-001 2.333000004E-001 3.229000047E-002 2.659000084E-002 -1.099000033E-002 1.881999969E-001
 8.280000091E-001 5.113000274E-001 2.320999950E-001 3.272999823E-002 2.689000033E-002 -1.138000004E-002 1.880999953E-001
 8.386999965E-001 5.170999765E-001 2.309000045E-001 3.314999864E-002 2.717999928E-002 -1.176999975E-002 1.880999953E-001
 8.493000269E-001 5.228000283E-001 2.295999974E-001 3.355000168E-002 2.745999955E-002 -1.214000024E-002 1.881999969E-001
 8.598999977E-001 5.285000205E-001 2.283000052E-001 3.395000100E-002 2.772000059E-002 -1.248999964E-002 1.882999986E-001
 8.705000281E-001 5.340999961E-001 2.268999964E-001 3.434000164E-002 2.796999924E-002 -1.283999998E-002 1.882999986E-001
 8.810999990E-001 5.396000147E-001 2.254000008E-001 3.472999856E-002 2.820999920E-002 -1.315999962E-002 1.884000003E-001
 8.917000294E-001 5.450999737E-001 2.239000052E-001 3.511000052E-002 2.842999995E-002 -1.348999981E-002 1.885000020E-001
 9.023000002E-001 5.504999757E-001 2.222999930E-001 3.548999876E-002 2.862999961E-002 -1.379000023E-002 1.884000003E-001
 9.128999710E-001 5.558999777E-001 2.207999974E-001 3.585999832E-002 2.882999927E-002 -1.408999972E-002 1.884000003E-001
 9.235000014E-001 5.612999797E-001 2.192000002E-001 3.624000028E-002 2.902000025E-002 -1.436999999E-002 1.884000003E-001
 9.340999722E-001 5.666000247E-001 2.176000029E-001 3.660000116E-002 2.920000069E-002 -1.465000026E-002 1.884000003E-001
 9.447000027E-001 5.717999935E-001 2.159000039E-001 3.694000095E-002 2.937000059E-002 -1.491000038E-002 1.886000037E-001
 9.552999735E-001 5.770000219E-001 2.142000049E-001 3.726999834E-002 2.951999940E-002 -1.515999995E-002 1.888000071E-001
 9.659000039E-001 5.821999907E-001 2.125000060E-001 3.757999837E-002 2.967000008E-002 -1.542000007E-002 1.889999956E-001
 9.764999747E-001 5.874000192E-001 2.108000070E-001 3.787999973E-002 2.979999967E-002 -1.565999910E-002 1.891999990E-001
 9.872000217E-001 5.924999714E-001 2.090000063E-001 3.816000000E-002 2.992000058E-002 -1.590000093E-002 1.894000024E-001
 9.977999926E-001 5.976999998E-001 2.073000073E-001 3.843000159E-002 3.002999909E-002 -1.613000035E-002 1.896000057E-001
 1.008000016E+000 6.028000116E-001 2.055999935E-001 3.866999969E-002 3.013000078E-002 -1.634999923E-002 1.897000074E-001
 1.019000053E+000 6.079999804E-001 2.037000060E-001 3.888000175E-002 3.022000007E-002 -1.655999944E-002 1.898999959E-001
 1.029999971E+000 6.132000089E-001 2.018000036E-001 3.906999901E-002 3.030000068E-002 -1.675999910E-002 1.899999976E-001
 1.039999962E+000 6.183999777E-001 2.000000030E-001 3.925000131E-002 3.037999943E-002 -1.695000008E-002 1.902000010E-001
 1.050999999E+000 6.233999729E-001 1.979999989E-001 3.942000121E-002 3.044000082E-002 -1.713000052E-002 1.903000027E-001
 1.060999990E+000 6.284000278E-001 1.960999966E-001 3.960999846E-002 3.050000034E-002 -1.730000041E-002 1.905000061E-001
 1.072000027E+000 6.334000230E-001 1.941000074E-001 3.979000077E-002 3.054999933E-002 -1.744000055E-002 1.905999929E-001
 1.082999945E+000 6.384000182E-001 1.922000051E-001 3.999000043E-002 3.057999909E-002 -1.757000014E-002 1.906999946E-001
 1.093000054E+000 6.432999969E-001 1.902000010E-001 4.019000009E-002 3.060000017E-002 -1.768999919E-002 1.908999979E-001
 1.103999972E+000 6.481999755E-001 1.881999969E-001 4.036999866E-002 3.061000071E-002 -1.778000034E-002 1.907999963E-001
 1.113999963E+000 6.531000137E-001 1.862999946E-001 4.055999964E-002 3.061000071E-002 -1.786999963E-002 1.907999963E-001
 1.125000000E+000 6.579999924E-001 1.844000071E-001 4.072999954E-002 3.060000017E-002 -1.793999970E-002 1.906999946E-001
 1.136000037E+000 6.629999876E-001 1.826000065E-001 4.089000076E-002 3.057000041E-002 -1.799999923E-002 1.905999929E-001
 1.146000028E+000 6.679000258E-001 1.807000041E-001 4.104999825E-002 3.054000065E-002 -1.805000007E-002 1.904000044E-001
 1.156999946E+000 6.728000045E-001 1.789000034E-001 4.117999971E-002 3.050000034E-002 -1.809000038E-002 1.902000010E-001
 1.167000055E+000 6.776999831E-001 1.771000028E-001 4.131000116E-002 3.046000004E-002 -1.810999960E-002 1.899999976E-001
 1.177999973E+000 6.825000048E-001 1.752000004E-001 4.140999913E-002 3.040000051E-002 -1.813000068E-002 1.896000057E-001
 1.189000010E+000 6.873000264E-001 1.735000014E-001 4.149999842E-002 3.033999912E-002 -1.813999936E-002 1.893000007E-001
 1.199000001E+000 6.919999719E-001 1.717000008E-001 4.157999903E-002 3.027000092E-002 -1.813999936E-002 1.888000071E-001
 1.210000038E+000 6.967999935E-001 1.699000001E-001 4.165000096E-002 3.019000031E-002 -1.813000068E-002 1.884000003E-001
 1.220999956E+000 7.014999986E-001 1.682000011E-001 4.171999916E-002 3.009999916E-002 -1.812000014E-002 1.879999936E-001
 1.230999947E+000 7.060999870E-001 1.664000005E-001 4.179000109E-002 2.999999933E-002 -1.810000092E-002 1.875000000E-001
 1.241999984E+000 7.106999755E-001 1.647000015E-001 4.185000062E-002 2.989000082E-002 -1.807999983E-002 1.870000064E-001
 1.251999974E+000 7.153000236E-001 1.630000025E-001 4.188999906E-002 2.975999936E-002 -1.805000007E-002 1.863999963E-001
 1.263000011E+000 7.199000120E-001 1.613000035E-001 4.193000123E-002 2.964000031E-002 -1.802000031E-002 1.858000010E-001
 1.274000049E+000 7.243000269E-001 1.596000046E-001 4.196999967E-002 2.950000018E-002 -1.798000000E-002 1.852000058E-001
 1.284000039E+000 7.287999988E-001 1.578000039E-001 4.201000184E-002 2.934999950E-002 -1.793999970E-002 1.846999973E-001
 1.294999957E+000 7.332000136E-001 1.561000049E-001 4.205999896E-002 2.920000069E-002 -1.789999940E-002 1.841000021E-001
 1.304999948E+000 7.376000285E-001 1.544000059E-001 4.210999981E-002 2.905000001E-002 -1.785999909E-002 1.835999936E-001
 1.315999985E+000 7.419000268E-001 1.526000053E-001 4.216999933E-002 2.888000011E-002 -1.781000011E-002 1.829999983E-001
 1.327000022E+000 7.462000251E-001 1.509000063E-001 4.222999886E-002 2.872000076E-002 -1.776999980E-002 1.825000048E-001
 1.337000012E+000 7.502999902E-001 1.492000073E-001 4.224999994E-002 2.855999954E-002 -1.771000028E-002 1.817999929E-001
 1.348000050E+000 7.544999719E-001 1.474999934E-001 4.228999838E-002 2.840000018E-002 -1.765999943E-002 1.810999960E-001
 1.358000040E+000 7.585999966E-001 1.457999945E-001 4.224999994E-002 2.823000029E-002 -1.758999936E-002 1.801999956E-001
 1.368999958E+000 7.627999783E-001 1.441999972E-001 4.224000126E-002 2.806000039E-002 -1.752999984E-002 1.794999987E-001
 1.379999995E+000 7.667000294E-001 1.424999982E-001 4.216999933E-002 2.787999995E-002 -1.744999923E-002 1.784999967E-001
 1.389999986E+000 7.707999945E-001 1.409000009E-001 4.210999981E-002 2.769999951E-002 -1.737000048E-002 1.775999963E-001
 1.401000023E+000 7.746000290E-001 1.393000036E-001 4.202000052E-002 2.751000039E-002 -1.727000065E-002 1.765999943E-001
 1.411000013E+000 7.785000205E-001 1.377000064E-001 4.193999991E-002 2.731999941E-002 -1.716000028E-002 1.756000072E-001
 1.422000051E+000 7.821999788E-001 1.361999959E-001 4.183999822E-002 2.713000029E-002 -1.704999991E-002 1.745000035E-001
 1.432999969E+000 7.858999968E-001 1.345999986E-001 4.171999916E-002 2.693000063E-002 -1.693000086E-002 1.735000014E-001
 1.442999959E+000 7.896000147E-001 1.331000030E-001 4.159000143E-002 2.672999911E-002 -1.680999994E-002 1.723999977E-001
 1.453999996E+000 7.932999730E-001 1.316000074E-001 4.143999889E-002 2.652000077E-002 -1.668000035E-002 1.712000072E-001
 1.463999987E+000 7.969999909E-001 1.300999969E-001 4.128000140E-002 2.631000057E-002 -1.655000076E-002 1.701000035E-001
 1.475000024E+000 8.008000255E-001 1.286000013E-001 4.109000042E-002 2.610000037E-002 -1.641000062E-002 1.687999964E-001
 1.485999942E+000 8.044999838E-001 1.272000074E-001 4.089999944E-002 2.587999962E-002 -1.627000049E-002 1.676000059E-001
 1.496000051E+000 8.083000183E-001 1.257999986E-001 4.070999846E-002 2.565000020E-002 -1.613000035E-002 1.664000005E-001
 1.506999969E+000 8.120999932E-001 1.243999973E-001 4.052000120E-002 2.541000023E-002 -1.599000022E-002 1.651999950E-001
 1.518000007E+000 8.159000278E-001 1.230000034E-001 4.032000154E-002 2.518000081E-002 -1.585000008E-002 1.639000028E-001
 1.527999997E+000 8.197000027E-001 1.216999963E-001 4.013000056E-002 2.494999953E-002 -1.569999941E-002 1.626999974E-001
 1.539000034E+000 8.234999776E-001 1.203000024E-001 3.991999850E-002 2.472000010E-002 -1.554999966E-002 1.614000052E-001
 1.549000025E+000 8.271999955E-001 1.190000027E-001 3.968000039E-002 2.449000068E-002 -1.539999992E-002 1.600999981E-001
 1.559999943E+000 8.310999870E-001 1.177000031E-001 3.945999965E-002 2.426999994E-002 -1.525000017E-002 1.587000042E-001
 1.570999980E+000 8.348000050E-001 1.164000034E-001 3.920999914E-002 2.404000051E-002 -1.510000043E-002 1.573999971E-001
 1.580999970E+000 8.385999799E-001 1.151999980E-001 3.894999996E-002 2.381999977E-002 -1.494000014E-002 1.561000049E-001
 1.592000008E+000 8.422999978E-001 1.138999984E-001 3.869999945E-002 2.357999980E-002 -1.477999985E-002 1.547999978E-001
 1.601999998E+000 8.460000157E-001 1.127000004E-001 3.846000135E-002 2.333999984E-002 -1.461999957E-002 1.535000056E-001
 1.613000035E+000 8.496999741E-001 1.115000024E-001 3.821000084E-002 2.311000042E-002 -1.446000021E-002 1.521999985E-001
 1.623999953E+000 8.532000184E-001 1.102999970E-001 3.795000166E-002 2.287000045E-002 -1.429000031E-002 1.509999931E-001
 1.633999944E+000 8.567000031E-001 1.090999991E-001 3.770000115E-002 2.263000049E-002 -1.412000041E-002 1.497000009E-001
 1.644999981E+000 8.601999879E-001 1.079000011E-001 3.743999824E-002 2.239999920E-002 -1.394999959E-002 1.484999955E-001
 1.654999971E+000 8.636000156E-001 1.067000031E-001 3.717999905E-002 2.215999924E-002 -1.377999969E-002 1.472000033E-001
 1.666000009E+000 8.669999838E-001 1.054999977E-001 3.691999987E-002 2.191999927E-002 -1.362000033E-002 1.458999962E-001
 1.677000046E+000 8.701999784E-001 1.042999998E-001 3.666999936E-002 2.168999985E-002 -1.346000005E-002 1.447000057E-001
 1.687000036E+000 8.734999895E-001 1.032000035E-001 3.641999885E-002 2.146000043E-002 -1.329999976E-002 1.433999985E-001
 1.697999954E+000 8.766999841E-001 1.019999981E-001 3.616999835E-002 2.122999914E-002 -1.315000001E-002 1.421000063E-001
 1.707999945E+000 8.798999786E-001 1.008000001E-001 3.590999916E-002 2.099999972E-002 -1.298999973E-002 1.409000009E-001
 1.718999982E+000 8.831999898E-001 9.962999821E-002 3.564999998E-002 2.077000029E-002 -1.283000037E-002 1.395999938E-001
 1.730000019E+000 8.863000274E-001 9.855999798E-002 3.536999971E-002 2.054999955E-002 -1.267000008E-002 1.381999999E-001
 1.740000010E+000 8.895000219E-001 9.751000255E-002 3.508000076E-002 2.033000067E-002 -1.250999980E-002 1.368999928E-001
 1.751000047E+000 8.925999999E-001 9.641999751E-002 3.479000181E-002 2.010999992E-002 -1.236000005E-002 1.354999989E-001
 1.761000037E+000 8.956000209E-001 9.528999776E-002 3.448000178E-002 1.989999972E-002 -1.221000031E-002 1.341000050E-001
 1.771999955E+000 8.985999823E-001 9.415999800E-002 3.415999934E-002 1.968000084E-002 -1.205000002E-002 1.326999962E-001
 1.782999992E+000 9.014999866E-001 9.309999645E-002 3.386000171E-002 1.947000064E-002 -1.190999988E-002 1.314000040E-001
 1.792999983E+000 9.043999910E-001 9.211000055E-002 3.356000036E-002 1.926999912E-002 -1.176000014E-002 1.299999952E-001
 1.804000020E+000 9.074000120E-001 9.113000333E-002 3.325999901E-002 1.906000078E-002 -1.161000039E-002 1.287000030E-001
 1.815000057E+000 9.101999998E-001 9.007000178E-002 3.294999897E-002 1.885999925E-002 -1.145999972E-002 1.273999959E-001
 1.825000048E+000 9.129999876E-001 8.899000287E-002 3.263999894E-002 1.865000091E-002 -1.130999997E-002 1.261000037E-001
 1.835999966E+000 9.158999920E-001 8.792000264E-002 3.232000023E-002 1.844999939E-002 -1.116000023E-002 1.247999966E-001
 1.845999956E+000 9.186000228E-001 8.701000363E-002 3.201000020E-002 1.824999973E-002 -1.100999955E-002 1.234000027E-001
 1.856999993E+000 9.214000106E-001 8.611000329E-002 3.169000149E-002 1.806000061E-002 -1.085000020E-002 1.221000031E-001
 1.868000031E+000 9.241999984E-001 8.518999815E-002 3.136999905E-002 1.785999909E-002 -1.070000045E-002 1.208000034E-001
 1.878000021E+000 9.266999960E-001 8.415000141E-002 3.105000034E-002 1.765999943E-002 -1.052999962E-002 1.194999963E-001
 1.889000058E+000 9.293000102E-001 8.310999721E-002 3.072999977E-002 1.745999977E-002 -1.037000027E-002 1.181999967E-001
 1.899000049E+000 9.319000244E-001 8.211000264E-002 3.040999919E-002 1.726000011E-002 -1.020000037E-002 1.168999970E-001
 1.909999967E+000 9.343000054E-001 8.127000183E-002 3.003999963E-002 1.707999967E-002 -1.004000008E-002 1.155999973E-001
 1.921000004E+000 9.366999865E-001 8.043000102E-002 2.968000062E-002 1.689000055E-002 -9.882000275E-003 1.142000034E-001
 1.930999994E+000 9.391999841E-001 7.958000153E-002 2.930999920E-002 1.671000011E-002 -9.723999538E-003 1.128999963E-001
 1.942000031E+000 9.416000247E-001 7.856000215E-002 2.893999964E-002 1.652999967E-002 -9.584999643E-003 1.115999967E-001
 1.952000022E+000 9.440000057E-001 7.754000276E-002 2.857000008E-002 1.634999923E-002 -9.445999749E-003 1.102000028E-001
 1.963000059E+000 9.465000033E-001 7.655999810E-002 2.820000052E-002 1.617000066E-002 -9.301999584E-003 1.088000014E-001
 1.973999977E+000 9.488000274E-001 7.580000162E-002 2.787999995E-002 1.600000076E-002 -9.157000110E-003 1.076000035E-001
 1.983999968E+000 9.510999918E-001 7.504999638E-002 2.755999938E-002 1.583000086E-002 -9.011000395E-003 1.063999981E-001
 1.995000005E+000 9.534999728E-001 7.429999858E-002 2.723000012E-002 1.565999910E-002 -8.865999989E-003 1.052000001E-001
 2.005000114E+000 9.556999803E-001 7.331000268E-002 2.690999955E-002 1.547999959E-002 -8.720999584E-003 1.040000021E-001
 2.016000032E+000 9.580000043E-001 7.231999934E-002 2.659999952E-002 1.530999970E-002 -8.576000109E-003 1.027999967E-001
 2.026999950E+000 9.603000283E-001 7.133000344E-002 2.628000081E-002 1.513000019E-002 -8.430999704E-003 1.015999988E-001
 2.036999941E+000 9.624000192E-001 7.062000036E-002 2.593000047E-002 1.496999990E-002 -8.284999989E-003 1.004000008E-001
 2.048000097E+000 9.645000100E-001 6.996999681E-002 2.559000067E-002 1.480000000E-002 -8.138000034E-003 9.918999672E-002
 2.058000088E+000 9.664999843E-001 6.931000203E-002 2.524000034E-002 1.463999972E-002 -7.992000319E-003 9.798999876E-002
 2.069000006E+000 9.685000181E-001 6.847000122E-002 2.489000000E-002 1.446999982E-002 -7.849000394E-003 9.680999815E-002
 2.079999924E+000 9.704999924E-001 6.750000268E-002 2.455000021E-002 1.429999992E-002 -7.708000019E-003 9.564000368E-002
 2.089999914E+000 9.724000096E-001 6.651999801E-002 2.421999909E-002 1.412000041E-002 -7.567000110E-003 9.447000176E-002
 2.101000071E+000 9.742000103E-001 6.566999853E-002 2.387999929E-002 1.394999959E-002 -7.424000185E-003 9.330999851E-002
 2.111999989E+000 9.760000110E-001 6.508000195E-002 2.355000004E-002 1.379000023E-002 -7.277000230E-003 9.212999791E-002
 2.121999979E+000 9.778000116E-001 6.447999924E-002 2.322000079E-002 1.362000033E-002 -7.129999809E-003 9.094999731E-002
 2.132999897E+000 9.794999957E-001 6.389000267E-002 2.290000021E-002 1.346000005E-002 -6.982999854E-003 8.976999670E-002
 2.142999887E+000 9.811000228E-001 6.289999932E-002 2.260000072E-002 1.329000015E-002 -6.847999990E-003 8.866000175E-002
 2.154000044E+000 9.828000069E-001 6.188999861E-002 2.230999991E-002 1.312000025E-002 -6.713999901E-003 8.755999804E-002
 2.164999962E+000 9.843999743E-001 6.088000163E-002 2.201999910E-002 1.295999996E-002 -6.579000037E-003 8.645000309E-002
 2.174999952E+000 9.858000278E-001 6.013999879E-002 2.174000069E-002 1.279000007E-002 -6.436999887E-003 8.538000286E-002
 2.186000109E+000 9.872000217E-001 5.962999910E-002 2.147999965E-002 1.262999978E-002 -6.291000172E-003 8.432000130E-002
 2.196000099E+000 9.884999990E-001 5.911999941E-002 2.122000046E-002 1.247000042E-002 -6.144999992E-003 8.325999975E-002
 2.207000017E+000 9.898999929E-001 5.857999995E-002 2.095999941E-002 1.231000014E-002 -5.998999812E-003 8.220999688E-002
 2.217999935E+000 9.911999702E-001 5.756000057E-002 2.070000023E-002 1.214999985E-002 -5.859000143E-003 8.121000230E-002
 2.227999926E+000 9.925000072E-001 5.654000118E-002 2.044999972E-002 1.200000010E-002 -5.719000008E-003 8.021000028E-002
 2.239000082E+000 9.937999845E-001 5.553000048E-002 2.019000053E-002 1.183999982E-002 -5.578999873E-003 7.920999825E-002
 2.249000072E+000 9.950000048E-001 5.480999872E-002 1.994000003E-002 1.168000046E-002 -5.441000219E-003 7.827000320E-002
 2.259999990E+000 9.961000085E-001 5.437000096E-002 1.971000060E-002 1.152000017E-002 -5.303999875E-003 7.737000287E-002
 2.270999908E+000 9.972000122E-001 5.392999947E-002 1.947000064E-002 1.135000028E-002 -5.166999996E-003 7.647000253E-002
 2.280999899E+000 9.983000159E-001 5.350000039E-002 1.923000067E-002 1.118999999E-002 -5.030000117E-003 7.558000088E-002
 2.292000055E+000 9.993000031E-001 5.249999836E-002 1.899000071E-002 1.102000009E-002 -4.898999818E-003 7.466000319E-002
 2.302000046E+000 1.000000000E+000 5.144999921E-002 1.874000020E-002 1.085999981E-002 -4.769000225E-003 7.372999936E-002
 2.312999964E+000 1.001999974E+000 5.039000139E-002 1.850000024E-002 1.070000045E-002 -4.639000166E-003 7.280000299E-002
 2.323999882E+000 1.003000021E+000 4.947999865E-002 1.824999973E-002 1.054000016E-002 -4.505999852E-003 7.186999917E-002
 2.334000111E+000 1.003000021E+000 4.913000017E-002 1.799999923E-002 1.037999988E-002 -4.366000183E-003 7.092999667E-002
 2.345000029E+000 1.003999949E+000 4.878000170E-002 1.775000058E-002 1.021999959E-002 -4.228000063E-003 6.999000162E-002
 2.355000019E+000 1.004999995E+000 4.843999818E-002 1.750000007E-002 1.006000023E-002 -4.091000184E-003 6.904999912E-002
 2.365999937E+000 1.006000042E+000 4.774000123E-002 1.726000011E-002 9.902000427E-003 -3.963999916E-003 6.815999746E-002
 2.377000093E+000 1.006000042E+000 4.659999907E-002 1.703999937E-002 9.735999629E-003 -3.851999994E-003 6.733000278E-002
 2.387000084E+000 1.006999969E+000 4.546000063E-002 1.682000048E-002 9.565999731E-003 -3.739000065E-003 6.651999801E-002
 2.398000002E+000 1.006999969E+000 4.431999847E-002 1.661000028E-002 9.397000074E-003 -3.626999911E-003 6.570000201E-002
 2.407999992E+000 1.006999969E+000 4.368000105E-002 1.640000008E-002 9.229999967E-003 -3.505999921E-003 6.483999640E-002
 2.418999910E+000 1.008000016E+000 4.337999970E-002 1.618999988E-002 9.064000100E-003 -3.379999893E-003 6.395000219E-002
 2.430000067E+000 1.008000016E+000 4.307999834E-002 1.596999913E-002 8.898999542E-003 -3.255000105E-003 6.304000318E-002
 2.440000057E+000 1.008000016E+000 4.278000072E-002 1.576000080E-002 8.733999915E-003 -3.130000085E-003 6.213999912E-002
 2.450999975E+000 1.008999944E+000 4.187000170E-002 1.556999981E-002 8.585999720E-003 -3.005000064E-003 6.134000048E-002
 2.461999893E+000 1.008999944E+000 4.069999978E-002 1.539999992E-002 8.444000036E-003 -2.880000044E-003 6.058999896E-002
 2.471999884E+000 1.008999944E+000 3.953000158E-002 1.522000041E-002 8.305000141E-003 -2.758000046E-003 5.981000140E-002
 2.483000040E+000 1.008999944E+000 3.835999966E-002 1.503999997E-002 8.166999556E-003 -2.635000041E-003 5.903999880E-002
 2.493000031E+000 1.008999944E+000 3.787999973E-002 1.489000022E-002 8.027000353E-003 -2.501999959E-003 5.835000053E-002
 2.503999949E+000 1.008999944E+000 3.768999875E-002 1.475000009E-002 7.885999978E-003 -2.365000080E-003 5.768999830E-002
 2.515000105E+000 1.008000016E+000 3.750000149E-002 1.460999995E-002 7.745000068E-003 -2.227999968E-003 5.702000111E-002
 2.525000095E+000 1.008000016E+000 3.731999919E-002 1.446999982E-002 7.602999918E-003 -2.091000089E-003 5.635000020E-002
 2.536000013E+000 1.008000016E+000 3.643999994E-002 1.434000023E-002 7.476000115E-003 -1.972000115E-003 5.578999966E-002
 2.546000004E+000 1.006999969E+000 3.517999873E-002 1.422000024E-002 7.354999892E-003 -1.864999998E-003 5.528999865E-002
 2.556999922E+000 1.006999969E+000 3.392999992E-002 1.410000026E-002 7.234999910E-003 -1.755999983E-003 5.477999896E-002
 2.568000078E+000 1.006000042E+000 3.266999871E-002 1.398000028E-002 7.114999928E-003 -1.647999976E-003 5.426999927E-002
 2.578000069E+000 1.004999995E+000 3.200000152E-002 1.389000006E-002 6.986999884E-003 -1.527999993E-003 5.381000042E-002
 2.588999987E+000 1.003999949E+000 3.189000115E-002 1.384000015E-002 6.852000020E-003 -1.397000044E-003 5.339999869E-002
 2.598999977E+000 1.003000021E+000 3.178999946E-002 1.377999969E-002 6.717000157E-003 -1.265999977E-003 5.297999829E-002
 2.609999895E+000 1.001999974E+000 3.169000149E-002 1.372000016E-002 6.581999827E-003 -1.136000035E-003 5.254999921E-002
 2.621000051E+000 1.001000047E+000 3.123999946E-002 1.365999971E-002 6.455999799E-003 -1.007999992E-003 5.217000097E-002
 2.631000042E+000 9.994999766E-001 2.991000004E-002 1.358999964E-002 6.353000179E-003 -8.879000088E-004 5.187999830E-002
 2.641999960E+000 9.980999827E-001 2.857000008E-002 1.351999957E-002 6.248999853E-003 -7.678000256E-004 5.158999935E-002
 2.651999950E+000 9.966999888E-001 2.724999934E-002 1.343999989E-002 6.144999992E-003 -6.479999865E-004 5.130000040E-002
 2.663000107E+000 9.952999949E-001 2.591999993E-002 1.336999983E-002 6.041000132E-003 -5.282000056E-004 5.101000145E-002
 2.674000025E+000 9.930999875E-001 2.590000071E-002 1.334000006E-002 5.946999881E-003 -3.845999890E-004 5.081000179E-002
 2.684000015E+000 9.908000231E-001 2.591999993E-002 1.329999976E-002 5.853000097E-003 -2.402999962E-004 5.062000081E-002
 2.694999933E+000 9.886000156E-001 2.596000023E-002 1.327000000E-002 5.760000087E-003 -9.755000065E-005 5.042000115E-002
 2.704999924E+000 9.864000082E-001 2.598999999E-002 1.322999969E-002 5.665999837E-003 4.514000102E-005 5.022000149E-002
 2.716000080E+000 9.836999774E-001 2.518000081E-002 1.326000039E-002 5.584000144E-003 1.803000050E-004 5.020000041E-002
 2.726999998E+000 9.807999730E-001 2.376000024E-002 1.334999967E-002 5.512000062E-003 3.099000023E-004 5.029999837E-002
 2.736999989E+000 9.778000116E-001 2.233999968E-002 1.343000028E-002 5.439999979E-003 4.408000095E-004 5.040000007E-002
 2.747999907E+000 9.749000072E-001 2.092999965E-002 1.351999957E-002 5.367999896E-003 5.725999945E-004 5.050000176E-002
 2.759000063E+000 9.718999863E-001 1.968000084E-002 1.360000018E-002 5.299000069E-003 7.047000108E-004 5.059999973E-002
 2.769000053E+000 9.672999978E-001 1.974000037E-002 1.370000001E-002 5.249999929E-003 8.379999781E-004 5.079999939E-002
 2.779999971E+000 9.628000259E-001 1.981000043E-002 1.379999984E-002 5.202000029E-003 9.715000051E-004 5.099000037E-002
 2.789999962E+000 9.582999945E-001 1.988999918E-002 1.389999967E-002 5.156999920E-003 1.107000047E-003 5.119999871E-002
 2.801000118E+000 9.537000060E-001 1.996999979E-002 1.400000043E-002 5.111000035E-003 1.243000035E-003 5.139999837E-002
 2.812000036E+000 9.490000010E-001 1.916000061E-002 1.420999970E-002 5.065999925E-003 1.369999954E-003 5.189000070E-002
 2.822000027E+000 9.440000057E-001 1.757000014E-002 1.449999958E-002 5.022000056E-003 1.490000053E-003 5.262999982E-002
 2.832999945E+000 9.391000271E-001 1.599000022E-002 1.479000039E-002 4.980000202E-003 1.612000051E-003 5.338000134E-002
 2.842999935E+000 9.341999888E-001 1.441999990E-002 1.508000027E-002 4.939999897E-003 1.735000056E-003 5.412999913E-002
 2.854000092E+000 9.293000102E-001 1.283999998E-002 1.537999976E-002 4.900000058E-003 1.857999945E-003 5.488000065E-002
 2.865000010E+000 9.210000038E-001 1.272000000E-002 1.546999998E-002 4.889000207E-003 1.923999982E-003 5.517999828E-002
 2.875000000E+000 9.121999741E-001 1.278000046E-002 1.553000044E-002 4.881000146E-003 1.981999958E-003 5.542999879E-002
 2.885999918E+000 9.035000205E-001 1.286000013E-002 1.559999958E-002 4.881000146E-003 2.042999957E-003 5.570999905E-002
 2.895999908E+000 8.948000073E-001 1.295000035E-002 1.565999910E-002 4.881999921E-003 2.105999971E-003 5.598999932E-002
 2.907000065E+000 8.866000175E-001 1.278000046E-002 1.583999954E-002 4.850000143E-003 2.192999935E-003 5.648000166E-002
 2.917999983E+000 8.822000027E-001 1.107999962E-002 1.672000065E-002 4.608000163E-003 2.440999961E-003 5.826000124E-002
 2.927999973E+000 8.777999878E-001 9.375999682E-003 1.759999990E-002 4.368000198E-003 2.688999986E-003 6.002999842E-002
 2.938999891E+000 8.734999895E-001 7.677000016E-003 1.847000048E-002 4.127999768E-003 2.938000020E-003 6.179999933E-002
 2.948999882E+000 8.693000078E-001 5.977999885E-003 1.933999918E-002 3.889000043E-003 3.187000053E-003 6.357000023E-002
 2.960000038E+000 8.524000049E-001 4.755000118E-003 1.947999932E-002 3.747999901E-003 3.299999982E-003 6.368000060E-002
 2.970999956E+000 8.057000041E-001 4.654999822E-003 1.789000072E-002 3.840999911E-003 3.093000036E-003 5.987999961E-002
 2.980999947E+000 7.592999935E-001 4.563999828E-003 1.631000079E-002 3.938999958E-003 2.889000112E-003 5.609999970E-002
 2.992000103E+000 7.134000063E-001 4.480999894E-003 1.473999955E-002 4.042000044E-003 2.685999963E-003 5.234999955E-002
 3.002000093E+000 6.674000025E-001 4.397000186E-003 1.315999962E-002 4.145000130E-003 2.483000048E-003 4.859000072E-002
 3.013000011E+000 5.442000031E-001 3.722999943E-003 1.037999988E-002 3.607999999E-003 2.011999954E-003 3.945999965E-002
 3.023999929E+000 2.876999974E-001 1.984999981E-003 5.497999955E-003 1.922999974E-003 1.068999991E-003 2.091999911E-002
 3.033999920E+000 3.359999880E-002 2.318000043E-004 6.420999998E-004 2.245999931E-004 1.248000044E-004 2.442999976E-003
